9
Properties=species:S:1:pos:R:3:forces:R:3 energy=-504.75539880507426 pbc="F F F"
C       -1.31180000       0.00791100       0.03195100       0.11507400      -0.04331641       0.01298376
C        0.17396900      -0.03116600       0.02107600      -0.78233910       0.40803649      -0.28507967
N        0.90716500      -0.90183300       0.64560500       0.73096897       0.28831179      -0.23510479
O        2.17285300      -0.54960900       0.34537700      -0.05548509       0.03742321      -0.02356448
N        2.15838300       0.54406900      -0.46705600      -0.91961352      -0.28286361       0.23927327
N        0.96356100       0.86771300      -0.67129700       0.50092575      -0.45297308       0.32521109
H       -1.66526600       0.95144200       0.45677800       0.14056876      -0.11605771      -0.08753999
H       -1.69759400      -0.06712200      -0.98825900       0.13183502       0.04510477       0.13096434
H       -1.70171400      -0.82112800       0.62509000       0.13806522       0.11633456      -0.07714355
9
Properties=species:S:1:pos:R:3:forces:R:3 energy=-504.30723535494263 pbc="F F F"
C       -1.30719500       0.08743800       0.06555800       0.17686663       0.10521381      -0.05590698
C        0.16977800      -0.07785800       0.05387900      -0.03836045       0.45255449      -0.28175467
N        0.87031300      -1.11731700       0.39448800       0.80471124       0.89111499      -0.43512788
O        2.12106400      -0.94686900       0.20423500      -0.43602002       1.00368822      -0.32156311
N        2.18316800       0.66378300      -0.44059300      -1.06296677      -1.43484786       0.70930334
N        1.02064500       0.92920500      -0.42851100       0.31776243      -0.84671541       0.29229848
H       -1.54649000       1.06786600      -0.35133100       0.03654252      -0.13545265       0.07813734
H       -1.77771600      -0.67934500      -0.55338300       0.07216905       0.03484754       0.13981329
H       -1.71434900       0.02642100       1.07711600       0.12929537      -0.07040314      -0.12519981
9
Properties=species:S:1:pos:R:3:forces:R:3 energy=-503.51421385842974 pbc="F F F"
C       -1.29422400       0.09108600       0.06365000       0.06460227       0.09692907      -0.03266200
C        0.17968500      -0.08244200       0.06728700       1.07593984       0.08984338      -0.27477974
N        0.86183800      -1.16199800       0.41692100      -0.07560370       1.48336013      -0.60920543
O        2.08433300      -1.19511600       0.29729000       0.07933502       0.23727351      -0.03691185
N        2.16162200       0.97012300      -0.56510400       0.27260993      -1.21922671       0.47070986
N        1.03100400       0.90195800      -0.41782100      -1.56955430      -0.50076280       0.37615694
H       -1.53593400       1.07108900      -0.35492900       0.05241030      -0.16079710       0.09053496
H       -1.76099200      -0.67424900      -0.55980400       0.02258193       0.03632843       0.13657871
H       -1.70826300       0.03202100       1.07250800       0.07767871      -0.06294790      -0.12042145
9
Properties=species:S:1:pos:R:3:forces:R:3 energy=-503.06362372664154 pbc="F F F"
C       -1.24946500       0.10940000       0.05268900      -0.04058090       0.05758801       0.00273590
C        0.23199700      -0.07582800       0.07600100       1.31967192      -0.11157407      -0.24305327
N        0.79664200      -1.27615400       0.48913300      -0.35708704       1.79266089      -0.76321762
O        2.00244900      -1.41099900       0.36464400       0.48982380      -0.92766883       0.41555817
N        2.04155300       1.33741600      -0.70020400       0.17280541      -0.37015641       0.15888138
N        1.08974300       0.81355600      -0.39091300      -1.91934329      -0.35873012       0.35801303
H       -1.51639400       1.08151200      -0.36793200       0.14212961      -0.12764255       0.07870788
H       -1.70846600      -0.66793600      -0.56503200       0.07160147       0.08024638       0.13766681
H       -1.66980300       0.04071600       1.05992400       0.12097900      -0.03472330      -0.14529229
9
Properties=species:S:1:pos:R:3:forces:R:3 energy=-502.76636964026545 pbc="F F F"
C       -1.16447800       0.10842300       0.03666500      -0.22498384       0.11780699       0.13741213
C        0.32391600      -0.01086300       0.13786700       1.38216005       0.21009597      -0.07110859
N        0.75390200      -1.22055400       0.72292200      -0.84899836       1.30147512      -1.12595045
O        1.72837500      -1.76976700       0.25858500       0.99548480      -0.45383747       0.37754075
N        1.86833400       1.64196000      -0.77836200      -0.01679855      -0.47248336       0.36469426
N        1.14683500       0.84687400      -0.41101000      -1.54761991      -0.86222918       0.21840401
H       -1.47915500       1.04824400      -0.41875500       0.14909794      -0.06393836       0.11610717
H       -1.54847400      -0.71850400      -0.57382600       0.07031171       0.19124746       0.13258590
H       -1.60143900       0.02047500       1.03479100       0.04134616       0.03186283      -0.14968518
9
Properties=species:S:1:pos:R:3:forces:R:3 energy=-501.85626915240664 pbc="F F F"
C       -1.12174600       0.05538200       0.01492900      -0.18896952       0.09299775       0.08642973
C        0.37111600       0.04035000       0.08274100       1.28449860       1.16170799       0.02037048
N        1.02601300      -1.05145500       0.87105400      -0.73389669       0.48321481      -0.88497290
O        1.29119400      -2.00214500       0.19222800       0.39860570      -0.48718171       0.27133397
N        1.85226400       1.76030700      -0.77434800      -0.61218543      -0.81386803       0.38816706
N        1.13983400       0.95518000      -0.37327100      -0.56360520      -0.34317594       0.11876559
H       -1.47159800       0.98501500      -0.44131300       0.14616658      -0.13151994       0.04606818
H       -1.50001200      -0.78449900      -0.57956500       0.13669261       0.07554905       0.09975504
H       -1.55536900      -0.01460700       1.01985500       0.13269334      -0.03772398      -0.14591715
9
Properties=species:S:1:pos:R:3:forces:R:3 energy=-502.3263773129088 pbc="F F F"
C       -1.11056900       0.03316000       0.00298300      -0.04926880       0.03471266      -0.14592306
C        0.38571100       0.03066800       0.09917000       1.67955511       1.09530925       0.03289122
N        1.22706700      -0.97210300       0.73262500      -0.29876541       1.10751104      -1.19120424
O        1.07359000      -2.08450600       0.29448600      -0.45878634      -1.20195564       0.51981480
N        1.83410900       1.79091100      -0.75317900      -0.51572238      -0.61807154       0.21887645
N        1.12246800       1.00814700      -0.33099700      -0.87178644      -0.14934113       0.64352995
H       -1.45875600       0.96703200      -0.45025700       0.18012406      -0.19284317       0.00501819
H       -1.49008100      -0.80276700      -0.59016100       0.14024634       0.02163462       0.07814450
H       -1.55130900      -0.02576200       1.00611300       0.19440385      -0.09695609      -0.16114782
9
Properties=species:S:1:pos:R:3:forces:R:3 energy=-502.7493047956959 pbc="F F F"
C       -1.08289900       0.01902600       0.00336200      -0.04138390       0.10819896      -0.02411009
C        0.41587800       0.02770000       0.10810300       2.07068547       1.45481854      -0.55685080
N        1.31502900      -0.97453800       0.51592400      -0.86033860       0.59543189      -0.70134264
O        0.87862700      -2.10817300       0.46721200      -0.23721456      -0.92087355       0.52012710
N        1.80377000       1.85879600      -0.72200000      -0.26565611      -0.26111427       0.14999342
N        1.12318800       1.05397900      -0.31610600      -1.26615509      -0.72383927       0.58908187
H       -1.44049700       0.94611600      -0.45697500       0.18556302      -0.18760536       0.03519499
H       -1.44451800      -0.82535900      -0.59104900       0.22071059       0.03557866       0.11388604
H       -1.53471000      -0.04739900       0.99985100       0.19378918      -0.10059560      -0.12597990
9
Properties=species:S:1:pos:R:3:forces:R:3 energy=-502.90798232488197 pbc="F F F"
C       -1.05097900       0.01050800       0.00434600      -0.08865303       0.09410091      -0.04385348
C        0.44667100       0.02466500       0.06080900       2.17613529       1.59052926      -0.68575833
N        1.30628900      -1.02328000       0.38607000      -1.11899519       0.48458081      -0.25555688
O        0.73397700      -2.08054900       0.59971400       0.02639658      -0.80096407       0.33123591
N        1.77280100       1.94108600      -0.68107600      -0.11608576      -0.17096824       0.10452616
N        1.13773400       1.07750100      -0.33052500      -1.39066218      -1.03740831       0.48358043
H       -1.42989400       0.92785800      -0.45530000       0.14803732      -0.15636886       0.06459779
H       -1.39670100      -0.84623300      -0.58239400       0.15965360       0.04592708       0.10482981
H       -1.48463600      -0.07470000       1.00644800       0.20417337      -0.04942858      -0.10360142
9
Properties=species:S:1:pos:R:3:forces:R:3 energy=-502.95240462279423 pbc="F F F"
C       -1.00967200      -0.01564000      -0.06772400      -0.12714032       0.06160480      -0.00799195
C        0.48221300       0.03210400       0.01536200       2.23654806       1.60617972      -0.59707153
N        1.29327900      -0.98149700       0.51611900      -1.17830078       0.49127903      -0.30325778
O        0.65689900      -1.95647300       0.89311600       0.16117777      -0.72695712       0.34111904
N        1.77331800       1.96050900      -0.75690800      -0.06323923      -0.19465326       0.08464518
N        1.17326000       1.07305700      -0.40199500      -1.42825204      -1.15002208       0.41972794
H       -1.43366100       0.94306600      -0.37632100       0.18515614      -0.14448103       0.05295711
H       -1.32729300      -0.78860000      -0.77451100       0.12794105       0.06021616       0.07054648
H       -1.41046100      -0.28714800       0.91265300       0.08610935      -0.00316621      -0.06067451
9
Properties=species:S:1:pos:R:3:forces:R:3 energy=-502.25912775355584 pbc="F F F"
C       -1.19640815       0.02760428       0.01764583      -1.93046458       0.49017198       0.20527669
C        0.24801254      -0.00826707      -0.01494625      -2.34054453       0.16989640       2.40486305
N        0.86065829      -0.94685320       0.78216684      -0.42326785       0.86059939      -4.00146876
O        1.93425736      -1.19078840       0.26873603       2.98746928      -0.91707275       2.04956383
N        2.11568281       1.08278688      -0.56673375      -0.46244305      -0.09360063      -0.70502587
N        0.96400061       0.92110909      -0.56262767       1.77901881      -0.48565770       0.19966605
H       -1.61546554       1.01510307       0.08619489       0.03871205       0.79268827       0.02915731
H       -1.66218492      -0.39260390      -0.85644778       0.11214169      -0.38793900      -0.67079735
H       -1.63141545      -0.50966265       0.84200841       0.23937819      -0.42908596       0.48876505
9
Properties=species:S:1:pos:R:3:forces:R:3 energy=-501.95547480204516 pbc="F F F"
C       -1.14210252       0.04353227       0.00352502      -0.94256675       0.31533718       0.22564369
C        0.32604134       0.01127986      -0.04875311       0.19363521       0.89150842       1.17703633
N        0.96686675      -0.97658790       0.85537084      -2.47108370       1.37222079      -0.43379655
O        1.54528836      -1.79553993       0.24684067       2.43936604      -2.04831781      -0.46407826
N        1.97461849       1.59413469      -0.66785935       0.21047225       0.61593574      -0.26898568
N        1.05852800       0.95830218      -0.44795903       0.13644512      -1.02706578      -0.18717399
H       -1.54931559       1.00053657      -0.27989743       0.09507594       0.52537883      -0.17222977
H       -1.60488813      -0.67576699      -0.65551114       0.13626275      -0.46286712      -0.33506267
H       -1.54136666      -0.16320186       0.98716677       0.20239314      -0.18213025       0.45864690
9
Properties=species:S:1:pos:R:3:forces:R:3 energy=-502.49658000753897 pbc="F F F"
C       -1.20822492       0.04611898       0.00826957      -0.94266347       0.25085987       0.33537413
C        0.24515199       0.01454344      -0.00034654       1.26726353       0.73386597       1.25882864
N        0.88417801      -0.96490694       0.80624001      -1.54651272       0.35132201      -2.14934476
O        1.80721487      -1.51786301       0.26110244       1.70989882      -0.64812656       0.87869419
N        2.07079094       1.37359876      -0.64068096       0.26321436       0.59052458      -0.29601711
N        1.04407663       0.90812945      -0.50151195      -0.68622484      -1.48526887       0.12154861
H       -1.59090006       1.04248227      -0.09880552      -0.17723977       0.61340972      -0.09804142
H       -1.64115865      -0.55400657      -0.78164881       0.07634826      -0.24150123      -0.30275351
H       -1.58589955      -0.35044816       0.94201395       0.03591581      -0.16508550       0.25171123
9
Properties=species:S:1:pos:R:3:forces:R:3 energy=-503.6495491761571 pbc="F F F"
C       -1.25198859       0.02076809       0.02468014      -1.13953341       0.17545865       0.17545027
C        0.19740979      -0.02402842       0.01248560      -1.11715213      -0.06025412       1.13100764
N        0.87801948      -0.93340499       0.69472191       0.36745314       1.29298824      -3.34649933
O        2.06901428      -0.87096034       0.32001655       1.93805211       0.91376025       1.45625640
N        2.13900782       0.81151990      -0.51837571      -0.57552364      -2.12197064      -0.07938417
N        0.96548128       0.90659046      -0.61736049       0.39652766      -0.31650968       0.79774188
H       -1.64094014       0.99270524       0.26962678      -0.01435234       0.62126634       0.11444211
H       -1.68102993      -0.23546213      -0.92998277       0.04570141      -0.15097381      -0.54386842
H       -1.66623709      -0.66842859       0.74174613       0.09882719      -0.35376523       0.29485362
9
Properties=species:S:1:pos:R:3:forces:R:3 energy=-502.85768824524547 pbc="F F F"
C       -1.25121001       0.08437395       0.01029025       0.38590392      -0.02035382       0.34208127
C        0.25530525       0.02282730       0.09092663       1.57325843      -0.02960139      -0.36569117
N        0.79027527      -1.12804698       0.68925401      -0.38340916       1.28048677      -1.36456844
O        1.90602899      -1.48901597       0.34610283       0.34561063      -0.51674719       0.70207837
N        2.04153213       1.47380070      -0.73244136      -0.20047111      -0.49543413       0.22311828
N        1.14414742       0.83478143      -0.46850670      -2.13344090      -0.50467054       0.48703188
H       -1.63220053       1.10337720      -0.13310939       0.20978943      -0.36768374       0.04315390
H       -1.64070994      -0.58163543      -0.78341948       0.31130142       0.42490491       0.30640146
H       -1.58728299      -0.32273273       0.97583170      -0.10854265       0.22909914      -0.37360554
9
Properties=species:S:1:pos:R:3:forces:R:3 energy=-503.09198881263023 pbc="F F F"
C       -1.26409454       0.04569273       0.01732065      -0.54314806       0.06150677       0.32177814
C        0.18990199       0.00624979       0.04699060       1.40149609       0.12836723       0.53054759
N        0.86312356      -0.97234448       0.68322337      -0.69635736       0.47029401      -2.20916228
O        2.00405814      -1.21764531       0.33169204       1.08439700       0.09315765       1.14872759
N        2.13014586       1.11423774      -0.60611151       0.37305690      -0.48592308      -0.22027471
N        1.01213911       0.89906108      -0.54635717      -1.24305061      -0.56400618       0.47947261
H       -1.62591150       1.05543676       0.07195949      -0.24286054       0.47053062      -0.00239234
H       -1.66653809      -0.42239281      -0.87488761       0.03558737      -0.06437175      -0.21373020
H       -1.62507002      -0.50975697       0.87221530      -0.16912080      -0.10955527       0.16503360
9
Properties=species:S:1:pos:R:3:forces:R:3 energy=-503.22077704133807 pbc="F F F"
C       -1.30448238       0.06801486       0.02370984       0.47693945      -0.06425272       0.30528566
C        0.19254047       0.01422585       0.10058014       1.59788896      -0.35814667      -0.86714771
N        0.85278856      -1.09081030       0.53735685      -0.31257884       1.65398985      -0.67070675
O        2.06730333      -1.19874373       0.42999619       0.02261135      -0.18766199       0.22026720
N        2.14582088       1.14080620      -0.68187640       0.27195511      -0.75882072       0.24468267
N        1.05566800       0.89156659      -0.49088273      -2.22003547      -0.36862909       0.74818850
H       -1.66726129       1.10719273       0.02650416       0.16446513      -0.50237004      -0.00921453
H       -1.67673157      -0.46586598      -0.86875613       0.18520798       0.33284924       0.36493550
H       -1.64625654      -0.46717482       0.91940667      -0.18645366       0.25304213      -0.33629054
9
Properties=species:S:1:pos:R:3:forces:R:3 energy=-502.30612169799343 pbc="F F F"
C       -1.18791568       0.05874251       0.00070329       0.01696441       0.23764237       0.33834012
C        0.30661246       0.02400169      -0.00104177       1.50444364       0.83295116       0.78663771
N        0.90557185      -1.02051146       0.83852909      -1.66585937       0.34916227      -1.50810151
O        1.61253881      -1.80164250       0.25382371       1.16716487      -0.15705305       0.43924317
N        1.96905666       1.64668095      -0.70415585      -0.62941000      -0.54444251       0.25685271
N        1.12804421       0.91633998      -0.44342799      -0.77193845      -0.87318420      -0.23375532
H       -1.55858828       1.04063955      -0.29522263       0.04303216      -0.08991573       0.01473323
H       -1.60833524      -0.70193144      -0.67433064       0.28369410       0.21565612       0.17278323
H       -1.53379140      -0.16646105       1.01869445       0.05190863       0.02918358      -0.26673333
9
Properties=species:S:1:pos:R:3:forces:R:3 energy=-502.9807295946659 pbc="F F F"
C       -1.20945632       0.11068654       0.03423675      -0.35775705      -0.08696640       0.12558546
C        0.26956154      -0.05319542       0.09717463       1.29874077       0.14282842      -0.44189976
N        0.76566355      -1.28551935       0.50869414      -0.20636735       1.68627041      -0.51752760
O        1.97626169      -1.43586586       0.48540453       0.54135375      -0.94180804       0.34564293
N        1.92686809       1.48027877      -0.81592312       0.26578741      -0.23999696       0.18358241
N        1.11445183       0.82875161      -0.38344631      -1.90859418      -0.46097274       0.31764807
H       -1.58372521       1.11241162      -0.17383287       0.46743559       0.03922468       0.00710488
H       -1.59806078      -0.54919107      -0.73737414      -0.07861968      -0.08327212      -0.09092148
H       -1.63501139      -0.20960005       0.98164616      -0.02197926      -0.05530727       0.07078510
9
Properties=species:S:1:pos:R:3:forces:R:3 energy=-502.36052962041435 pbc="F F F"
C       -1.06794667       0.01893517      -0.03591834      -0.37915184      -0.04737133      -0.42525367
C        0.42423728       0.03013706      -0.02779515       1.39445912       0.89396335       0.06768052
N        1.17409439      -0.95048529       0.69864140       1.83910798       5.43159722      -0.15060079
O        0.98244863      -2.07952085       0.57274068      -1.77066852      -5.23903462      -0.23263541
N        1.82656976       1.89980523      -0.73333286      -0.64269235      -0.92506581       0.09054469
N        1.14920195       1.04133786      -0.40015217      -0.80470668      -0.06372165       0.68617369
H       -1.47088647       0.95969037      -0.41985838       0.14357203      -0.13795483       0.03747566
H       -1.44777058      -0.79814215      -0.65777568       0.06800677       0.05906801       0.04731352
H       -1.44978324      -0.13418571       0.97899296       0.15207350       0.02851966      -0.12069821
9
Properties=species:S:1:pos:R:3:forces:R:3 energy=-502.0448365953745 pbc="F F F"
C       -1.16227464       0.03574439       0.01037207      -1.91082348       0.43601286       0.22472327
C        0.28489124       0.00095810      -0.03141391      -1.34329074       0.60709685       2.04174269
N        0.89518889      -0.94213330       0.83540512      -1.66944571       0.48169679      -2.08867809
O        1.76299576      -1.50686881       0.24140647       2.85679408      -1.64797270       0.79385631
N        2.06194646       1.34164371      -0.61920607      -0.15476862       0.87393202      -0.50937495
N        0.99688677       0.93183531      -0.50445207       1.72619989      -0.65781246      -0.34300895
H       -1.58605113       1.01852710      -0.09588845       0.08246776       0.75853907      -0.10758220
H       -1.63784291      -0.53952012      -0.76601438       0.14326386      -0.51066995      -0.56468393
H       -1.59053504      -0.34260700       0.92428799       0.26960297      -0.34082248       0.55300584
9
Properties=species:S:1:pos:R:3:forces:R:3 energy=-504.0549499475435 pbc="F F F"
C       -1.30042372       0.03250270       0.02610068      -0.21607481      -0.08766246       0.23735659
C        0.16001794      -0.02440442       0.05700979       0.68228777       0.51157063      -0.40010313
N        0.88967628      -0.94228490       0.60310872       0.72829321       0.26487458      -1.14437629
O        2.12418357      -0.87995776       0.36589265      -0.38544452       1.44694553       0.15294402
N        2.14783396       0.78701583      -0.54103227      -0.55076093      -1.54951275       0.31181884
N        0.98407983       0.92385675      -0.59189393      -0.00308973      -0.73512689       0.83957780
H       -1.64761113       1.03582283       0.23903090      -0.09774443       0.14453356      -0.00561672
H       -1.68436153      -0.27969690      -0.94381498       0.03387906       0.04147622      -0.04039208
H       -1.66333413      -0.65379549       0.78290451      -0.19134561      -0.03709841       0.04879098
9
Properties=species:S:1:pos:R:3:forces:R:3 energy=-501.7317756803008 pbc="F F F"
C       -1.12825782       0.05172191      -0.00284551      -0.16449174       0.07009249      -0.03078474
C        0.36941454       0.02287475      -0.06730941       1.61159125       0.84721016       0.64402037
N        1.02675064      -1.05933000       0.86060011      -0.66262492       0.61458452      -1.77723032
O        1.33066950      -2.05482586       0.26867036       0.01694379       0.26490794       0.56673717
N        1.87861125       1.83781236      -0.70923086      -1.68142032      -1.98686886       0.56554342
N        1.12566288       1.00933505      -0.39803589       0.24061567       0.25124815       0.10212356
H       -1.50716691       0.97334286      -0.46211820       0.17815123      -0.23681454       0.08881330
H       -1.56603381      -0.80418292      -0.53826787       0.22209788       0.20096788       0.15816787
H       -1.48697925       0.01899386       1.03978727       0.23913717      -0.02532773      -0.31739063
9
Properties=species:S:1:pos:R:3:forces:R:3 energy=-503.3075851690466 pbc="F F F"
C       -1.27600603       0.06866637       0.03663705      -0.23939791       0.02239504       0.12427886
C        0.20118972      -0.03858978       0.05526346       1.14333727      -0.06993960       0.02000289
N        0.86697409      -1.13464269       0.49041852      -0.23593400       1.75155474      -0.71857153
O        2.08706734      -1.16002492       0.42314747       0.38733323      -0.46454050       0.12279918
N        2.12890861       1.10681006      -0.67607501       0.53305454      -0.69949337       0.46082332
N        1.04052969       0.89924262      -0.42997930      -1.99361024      -0.37932853       0.07646409
H       -1.64158745       1.09000299      -0.04491276       0.33564244       0.09725607      -0.02575196
H       -1.68424680      -0.48402236      -0.80555045      -0.01819709      -0.12483695      -0.09682532
H       -1.70002115      -0.34623897       0.94756048       0.08777176      -0.13306690       0.03678045
9
Properties=species:S:1:pos:R:3:forces:R:3 energy=-502.0981552936049 pbc="F F F"
C       -1.09727904       0.03443751      -0.02172213      -0.28557357      -0.09757545      -0.36760877
C        0.39793254       0.02585601      -0.04942233       1.51507815       0.75046774       0.37257741
N        1.10010104      -0.96967314       0.80074200       0.52401352       1.35824505      -0.92604486
O        1.15504526      -2.09827824       0.40493026      -0.71834929      -0.74060005       0.13416577
N        1.84898731       1.86725428      -0.72108120      -0.73680928      -1.04847132       0.08612948
N        1.13873105       1.02747555      -0.39797185      -0.74644521      -0.17427381       0.83726091
H       -1.48824126       0.96632810      -0.44014770       0.16334943      -0.15889112       0.02601786
H       -1.50458734      -0.80127695      -0.60087911       0.06569390       0.08568521       0.06389213
H       -1.46760746      -0.06064723       1.00859990       0.21904234       0.02541374      -0.22638994
9
Properties=species:S:1:pos:R:3:forces:R:3 energy=-502.7575277060828 pbc="F F F"
C       -1.24383055       0.06020732       0.00768679       0.00256898       0.11633724       0.35984277
C        0.23750680       0.02787277       0.03765188       1.76417902       0.19718456       0.62632359
N        0.85442513      -1.01715982       0.76623368      -1.28571813       0.62791276      -1.83195868
O        1.85118406      -1.51673562       0.28957643       0.99589147      -0.30991648       0.78330625
N        2.07072411       1.41923486      -0.67405782      -0.25437185      -0.10094639       0.01207329
N        1.09105179       0.87171042      -0.49235338      -1.22372641      -0.85255004       0.15658226
H       -1.60640253       1.07525830      -0.11005994      -0.12122960       0.06140066      -0.03716468
H       -1.64552356      -0.57284249      -0.79330111       0.18874132       0.17441164       0.12046590
H       -1.58378855      -0.34987549       0.96338615      -0.06633481       0.08616605      -0.18947071
9
Properties=species:S:1:pos:R:3:forces:R:3 energy=-504.1804963770246 pbc="F F F"
C       -1.32446769       0.04417498       0.03309418       0.40244131      -0.08380896       0.20490111
C        0.16594889      -0.02036935       0.07155209       0.32240014       0.33036301      -0.72137361
N        0.90048934      -0.99610265       0.51780618       0.61436819       0.96684805      -0.19159167
O        2.14718928      -0.84309656       0.36578618      -0.62788502       0.90733909      -0.73278424
N        2.17104777       0.73650524      -0.54014021      -0.99212634      -1.23137252       1.02621532
N        1.00694187       0.94097898      -0.53860216       0.06746863      -0.87578993       0.39907865
H       -1.67192665       1.07956244       0.16360645       0.16633298      -0.44341163      -0.07757619
H       -1.69520653      -0.35283254      -0.92520971       0.12898104       0.21108332       0.35026638
H       -1.68770613      -0.59011456       0.84925049      -0.08198092       0.21874957      -0.25713575
9
Properties=species:S:1:pos:R:3:forces:R:3 energy=-502.752896816571 pbc="F F F"
C       -1.22534280       0.03691557       0.01665266      -1.69733310       0.18101534       0.31179616
C        0.20626521      -0.00360254       0.01370573       0.71767717       0.35200580       1.42898659
N        0.86450182      -0.95122469       0.73917575      -0.72702684       0.62343004      -3.22520281
O        1.96824195      -1.20608211       0.29551873       1.95977082      -0.26220120       1.61882375
N        2.12140636       1.09580357      -0.58264604       0.29025376      -0.26808170      -0.45083504
N        0.98997670       0.91282127      -0.55699080      -0.41184722      -0.90271120       0.46279699
H       -1.61725881       1.02901205       0.08186700      -0.19189263       0.84215797       0.02433606
H       -1.66316208      -0.40365248      -0.86457307       0.02890126      -0.27320113      -0.52672704
H       -1.62733197      -0.51151074       0.85334791       0.03149679      -0.29241394       0.35602534
9
Properties=species:S:1:pos:R:3:forces:R:3 energy=-502.6108382535207 pbc="F F F"
C       -1.17234555       0.08749901       0.00571102      -0.07712087       0.10015654       0.28124877
C        0.32716104       0.01655321       0.06494647       1.30733695       0.43638399       0.34169864
N        0.78974277      -1.13090486       0.78418341      -1.02812142       1.07588759      -1.51827638
O        1.68205215      -1.77136706       0.27767391       1.04881962      -0.37727151       0.47725866
N        1.90794512       1.68518794      -0.74707945      -0.20489755      -0.58771087       0.35081722
N        1.16721366       0.87855499      -0.43624878      -1.53200575      -0.89277189       0.04112252
H       -1.56001083       1.05168907      -0.33182877       0.25104868      -0.13014346       0.08746458
H       -1.58139219      -0.70267614      -0.64435695       0.29693984       0.28409126       0.13507812
H       -1.52646385      -0.12006859       1.02154678      -0.06199949       0.09137836      -0.19641213
9
Properties=species:S:1:pos:R:3:forces:R:3 energy=-504.5469961691138 pbc="F F F"
C       -1.30638887       0.06002879       0.04948891       0.17665171       0.10796251       0.01258219