11
Properties=species:S:1:pos:R:3:forces:R:3 energy=-48.735407146419675 pbc='F F F'
C  -0.16206048920452606 -1.2643076137393405 0.06895016339898373 -0.006077428996350579 0.0041935082920452164 -0.0012889850772595805
O  -1.270005971893258 -0.3779620131582206 0.007149177736344902 -0.034093339353764594 -0.00784266263329267 0.002081363752741729
C  -0.8278223159446731 0.9702931453296034 -0.05760607992690168 -0.0023187633928135457 -0.004382449627285379 0.0009771056637918442
C  0.6725393857741357 0.8911213868992206 -0.04841728705576371 0.02131230667399399 -0.040678997990249474 0.003261740950586377
C  1.0509930163289194 -0.3784628707538427 0.024487696854010883 -0.006010994359617166 0.04557665595208226 -0.003024127960358202
H  -0.20782566850491643 -1.86289019039607 0.9917225848504927 -0.014989709345941765 0.034346625738619886 0.016279103074368514
H  -0.19681125635641697 -1.9692021534378898 -0.7755751106442008 -0.017559116903537286 0.034603728720716695 -0.02455640404487475
H  -1.2216576028742065 1.5372372875735731 0.7998886045586155 0.008162991155181978 -0.029546616842374036 0.02135803729527683
H  -1.2183127312589186 1.4491767894580294 -0.9683637872176234 0.009439102203724783 -0.03593259906720467 -0.019319491720782064
H  1.3147695192348035 1.7636043606081375 -0.09323047789356884 0.022117017749560246 0.009763724879592683 0.0013646425188360057
H  2.06656808852336 -0.7574408927527615 0.0507045497091344 0.024663138515541444 0.003976720879034216 -0.0007885215062296914
11
Properties=species:S:1:pos:R:3:forces:R:3 energy=-48.33861743844773 pbc='F F F'
C  -0.13706002940792428 -1.2633797472311434 0.06776771745969606 -0.2694764839934096 -1.1933087633293535 -0.05582849513618272
O  -1.2164654874448222 -0.46516151195442396 -0.2365712370444201 -0.790955952664131 3.610566592542391 -0.2056789405017965
C  -0.7777441879052382 1.0131592873652668 -0.06153943824216619 -2.7756885317179734 -2.2094215310109155 -0.14369281337122217
C  0.6710021556688222 0.9135473813102938 -0.011844250344180756 1.0718076826342002 -0.5773977732184087 -0.1619561691104114
C  1.0390451988160108 -0.36843614366110133 0.033138346597846834 0.9452622878819178 0.4833720416672741 0.035778767896620815
H  -0.330784577201353 -1.761941048161465 1.032767076681982 0.4881421089850931 0.07922238791193655 0.2758026896079096
H  -0.11132887477107169 -2.088117110712662 -0.6648154693178614 0.3430301252893584 0.11112056149054766 -0.06671956465881036
H  -1.3069507979052775 1.3645367564968558 0.8359450269830231 0.42220065214401764 0.024010017636875238 0.25016241678648493
H  -1.210019364695895 1.6195694158453011 -0.8721870269290105 0.2748390374481085 -0.40003714848585314 -0.2374074792631007
H  1.321645298154976 1.7716956214682569 -0.11083183220761565 0.14483397430093128 0.048659623509864615 0.13887230126269773
H  2.056783407008209 -0.7360374205178092 -0.011963089228468312 0.14004954474835185 0.02237561798798453 0.17753603085414024
11
Properties=species:S:1:pos:R:3:forces:R:3 energy=-47.46836415666803 pbc='F F F'
C  -0.12381667549367917 -1.2702896141846622 0.06943862327274222 -0.6975744491622241 -1.3461919572563408 -0.1752181070294161
O  -1.1438444756361197 -0.5370844030969142 -0.47641213452306147 -1.2995533474814172 4.509150377101204 -0.05801516593443077
C  -0.7444450013257433 1.0694355221757663 -0.04990705094104577 -4.126101024447712 -3.197474595502957 -0.8442901446399631
C  0.6695595319889109 0.9341235961876012 0.022933427898237116 1.9163504851785145 -1.0221923161412518 -0.1115650286416649
C  1.0276547026299276 -0.36038137462315556 0.04179658104435768 1.5856020269618734 0.9155870393043596 0.20151904136426924
H  -0.45193924856847006 -1.6523124600216073 1.054024699013221 0.6008462255786764 0.22745259619153355 0.4343810411930293
H  -0.028740477881921786 -2.1898053987842445 -0.5377456564141506 0.46738511188755666 0.22380424326320167 -0.042084135438341295
H  -1.3826712720206327 1.1667571396317253 0.8357529066272459 0.6123040998237494 0.10122440756180452 0.49459108956702375
H  -1.1976456616968414 1.77494124056532 -0.7621023175395153 0.43294504135155515 -0.5124791469545584 -0.42271714181363285
H  1.3271697664327344 1.777670605934509 -0.1273219825090615 0.2748218874688249 0.05256734044858324 0.20842706056846863
H  2.044764639620767 -0.7152170327699401 -0.0704475448731087 0.22608091584290724 0.04614775344011038 0.31795989647207334
11
Properties=species:S:1:pos:R:3:forces:R:3 energy=-46.35840955816366 pbc='F F F'
C  -0.12758019610794896 -1.2790497195062822 0.06792916456581757 -0.6383633905010676 -1.0941182030620398 -0.17835708684510776
O  -1.0454944887312294 -0.6171440326578822 -0.6980859757555975 -1.9050951106222673 3.8936232997722806 -0.06923423939094785
C  -0.7251528015758857 1.1321134438544536 -0.017076373440630534 -4.266712843068755 -3.0102953898066556 -1.420084027127574
C  0.6630650684127474 0.9541404963393606 0.05576665221390847 2.4851606507054496 -1.4033502494675045 0.06604929796604797
C  1.014502604696638 -0.3543575217796523 0.04985027358795951 1.8092413320936882 1.303321643461101 0.44725861792958704
H  -0.5691220572729407 -1.5369161992356548 1.0501780867630977 0.49142701521694926 0.3356890630147327 0.4647657005349031
H  0.04699416110691334 -2.2698726397625095 -0.3943542252203777 0.4262269566483997 0.2743685020857681 -0.061301740195299236
H  -1.4395147147977043 0.9645073913795084 0.7912197692492305 0.5766587433434488 0.04062703861397996 0.651400478335474
H  -1.1834093513194661 1.915676433797615 -0.634626965948852 0.479225887596858 -0.4058581808850425 -0.4747051258245705
H  1.3304223320982518 1.781263563753544 -0.14335262742086868 0.3058892166603096 0.0016812897863643715 0.19047760132475086
H  2.0293187215194544 -0.6940746209029443 -0.12729867808381096 0.2326713289637153 0.06467941281320591 0.38388536115312777
11
Properties=species:S:1:pos:R:3:forces:R:3 energy=-45.349234828009685 pbc='F F F'
C  -0.14568401927533836 -1.2935861415885705 0.058741836631579586 -0.18357276149553758 -0.4753240593075744 0.03045386351971871
O  -0.922899477131343 -0.718327075024482 -0.9049808701607295 -1.900460299950224 2.2767279612718285 -0.3692580059390022
C  -0.7239581077595051 1.1919073755491993 0.03655763402172033 -3.050557645830279 -1.9653572373631947 -1.2675647889755266
C  0.6486116007716969 0.9763236690476946 0.08881250556566535 2.1907978524658263 -1.3959346126486134 0.16559880868713503
C  0.9987716498847695 -0.34969706236069187 0.05699924705325359 1.3047063995157913 1.3040792486836221 0.5654911665674416
H  -0.6827329531274152 -1.4155796289927152 1.0207886494400447 0.255871252457353 0.2909422639404005 0.3277972908161287
H  0.11691127223154496 -2.329294079462987 -0.23346131352612393 0.2732082116843027 0.22548205383250672 -0.0589013987269486
H  -1.4708841858492618 0.7745415974037041 0.7100254685620431 0.41370057674065114 -0.06763143772810909 0.47099335066703957
H  -1.1657234851381655 2.0464972596752817 -0.4861046357559932 0.390429309396957 -0.19757106835179644 -0.2901325196729075
H  1.3303932098580549 1.782818180213592 -0.15993922273920375 0.1728117561211949 -0.08235546802244885 0.08987204435357801
H  2.0090766623669065 -0.6709691587529953 -0.18714161402347976 0.13463143319544013 0.07618517833197672 0.3246297722160005
11
Properties=species:S:1:pos:R:3:forces:R:3 energy=-44.9454960496123 pbc='F F F'
C  -0.1703364034 -1.3207197183 0.0468199889 -0.040016323765692995 0.07049396299803992 -0.2250483139930714
O  -0.7904093913 -0.8321364287 -1.098404307 0.5118501361348008 0.2495808405096251 0.6338290204443673
C  -0.7507982302 1.2369416208 0.0984296492 0.4623023024482503 -0.38871686071757156 -0.07558846093030626
C  0.6307726281 1.0009176286 0.1231680852 -0.3969573770666508 -0.1794937976577088 -0.1439328630475215
C  0.9818572084 -0.3462882303 0.0623916139 -0.5516705110744828 0.16444244718870568 -0.2900626276734932
H  -0.7865271381 -1.2948790223 0.9720576634 0.06606719675347256 0.05818819435105532 -0.06638487091968073
H  0.1792546735 -2.3674662918 -0.067337296 -0.03703816811033296 0.18584097149424003 0.05602754353013158
H  -1.4746850518 0.6150286867 0.6151045336 0.09951481887494652 -0.0016155560838274695 -0.08999938225813206
H  -1.1413589426 2.1643044865 -0.3249560726 0.07349086775612595 -0.08490958579403775 0.0893033161372911
H  1.3276978306 1.7832052875 -0.1768458621 -0.0838562840425167 -0.10752775231367184 0.04198350055042875
H  1.9841128168 -0.6460440187 -0.2499709967 -0.10949464895098611 0.032860816837455835 0.08102837950200761
11
Properties=species:S:1:pos:R:3:forces:R:3 energy=-45.4326597244044 pbc='F F F'
C  -0.12553296745020054 -1.3904131768553138 0.12346574025287776 -1.0138898991419385 -1.1142611664282354 0.260334668186155
O  -0.7107129469384705 -0.9156529314084212 -1.0525023451418836 2.6832522843370543 -0.4070652091118188 0.572751906904785
C  -0.7318266596080055 1.3270366019880255 0.054483019029373664 -0.008586234053795888 1.0243841272435923 1.20816597708599
C  0.5619960554961242 0.9791614086793359 0.10925739096376347 -0.5708903761398217 1.5238648166774253 -0.20409136434738054
C  0.8955765758529634 -0.3689759698453224 -0.047497071480609145 -1.1659360357648094 -1.5694538642678133 -1.1727494505525924
H  -0.7467989731674958 -1.3151838435523624 1.0309957954861804 -0.0024239889343435346 0.10809605490950948 0.03576279738529005
H  0.2651876405076117 -2.4165260251599388 0.03989288189554633 -0.05134189864806871 -0.05029743850960734 0.13518761180483155
H  -1.5430015822762353 0.7114964701061036 0.34306415119800243 -0.5311484528654197 -1.1130576560879129 -0.2428912588011476
H  -1.0870298505315246 2.3044566894178273 -0.1793162214614358 0.29053502148076044 1.1135572092826669 0.04052353046664666
H  1.3245167512734548 1.7173811949624116 -0.00996934502472278 0.4939861083820616 0.5064413740907053 -0.33657458772538673
H  1.8829902658776072 -0.642875140943751 -0.41147256735658844 -0.12377903440423828 -0.022557676479544632 -0.2943522540419219
11
Properties=species:S:1:pos:R:3:forces:R:3 energy=-46.3541771997825 pbc='F F F'
C  -0.07948612475119846 -1.4560763280930529 0.1990623448272995 -1.1606627842372348 -1.4373064613378488 0.5273127536115247
O  -0.633499757747711 -0.9961102277407516 -1.0066072605577392 3.254468242071451 0.1822889443360206 1.0317576815797505
C  -0.7261671934272256 1.4127320292513554 0.01910670416640745 -1.5432154891970293 1.0951811919596697 0.7535050163302505
C  0.4989330814116426 0.9648889339007606 0.0902719228720735 0.6484033244374728 1.1730828448046644 -0.006523625420162005
C  0.8089870370602187 -0.3916887981262 -0.15532226659815426 -1.5378085081562276 -1.6487749060325276 -1.7960042044478797
H  -0.7077584800667968 -1.3339032067029715 1.0872505034595845 -0.0515148105937113 0.07870223179751575 0.09263724117451022
H  0.34900131984873994 -2.462300359551337 0.1442726409739859 -0.060258866787562065 -0.1559467758796972 0.10735673280294233
H  -1.5971441140646272 0.816754186128396 0.05797962400886377 -0.6098562887426512 -1.2141564919389016 -0.5108257896864596
H  -1.0288639933997004 2.4284237198786003 -0.025782090913901254 0.45921248156305444 1.329039902218144 0.3267142872158576
H  1.314722560570539 1.6435542752807637 0.1582245360920863 0.757665105009517 0.6529109752795804 -0.11894680197249431
H  1.7825490399189658 -0.6392401103289009 -0.5681091568530631 -0.15113045549239373 -0.05614374485477171 -0.40975923804900816
11
Properties=species:S:1:pos:R:3:forces:R:3 energy=-47.357461449039874 pbc='F F F'
C  -0.029848863845096812 -1.5178056284915302 0.2736116889725264 -0.7943515531743521 -1.07186006691101 0.5094936139294992
O  -0.5563937558768947 -1.0752123447376642 -0.9596008066675008 2.7293113209303193 0.6913655388254196 1.0238297700038175
C  -0.7435515494721988 1.4970595162407005 -0.015829469471508574 -1.1682007588331424 0.6981810695798412 0.21867818632281028
C  0.4433866192055397 0.9604375629228226 0.07175376787846265 0.7536209228521799 0.3335259447059196 0.11013057963831221
C  0.719115168237775 -0.4171830992185613 -0.2617743521801216 -1.6701002366819861 -1.0842550337668098 -1.7478152580195725
H  -0.6678500940887998 -1.3523657285896664 1.1423183592450523 -0.04848054667544268 0.046419010294751775 0.10046649421825737
H  0.4330113163936621 -2.505823527365321 0.24839758310895735 -0.025689313738276442 -0.13322367471316665 0.07088781880237643
H  -1.6221573937475582 0.9468162426806903 -0.22908262643492533 -0.6308227054994259 -0.9526615489835896 -0.5359856573482527
H  -0.9690118063311478 2.525628003456557 0.12906411144228283 0.3457315397723556 1.0290479705061826 0.4192640888162472
H  1.2910805544450756 1.5579418920532655 0.32501155606520205 0.6669123706994549 0.5110847699339598 0.14247975184473624
H  1.6794012037046009 -0.6353306705927635 -0.723576251113513 -0.14713996758902564 -0.0692462584249551 -0.3127344320885108
11
Properties=species:S:1:pos:R:3:forces:R:3 energy=-47.9130481569282 pbc='F F F'
C  0.02273071041901395 -1.5784923975375822 0.34797440641607463 -0.010429104521942923 -0.0030061266373318375 0.013361962684091224
O  -0.47567405769501536 -1.1552889414062586 -0.9106291995564723 -0.016825158118567694 0.029803098337367988 0.002898123687114158
C  -0.7736362872747352 1.586870708755444 -0.058819470960535546 -0.01240192503280805 -0.018575482595643775 -0.009191692898339335
C  0.3922656950567264 0.960336243677875 0.05883537441999008 0.0027993213788285757 -0.0035142503480079267 0.011888135021715127
C  0.6250813884999121 -0.44640409263676634 -0.3687993198044194 0.005682615610280711 0.006395987622112697 -0.006789512422603345
H  -0.6259079873193247 -1.3715013336327078 1.1979963615013398 -0.020061764117026447 0.01991335519772901 0.013787713076962669
H  0.5192098810602767 -2.5489426343559685 0.3550530579347911 0.009100990388373578 0.0028573800293198205 -0.02086902521289972
H  -1.6298949244998797 1.0897160966049182 -0.5053052408277151 -0.00962365420274017 -0.04454454050357903 -0.013097293099088253
H  -0.9084510791190586 2.6111362615369913 0.27732372855481485 0.031050259739158134 -0.011415848275191601 -0.003588577140754252
H  1.2562601840236995 1.465205662572481 0.48850041114406595 0.010390837865120333 0.01693405601844102 0.01813740566480387
H  1.5709813601860012 -0.6314326563707688 -0.8818921302827832 0.010667542476393429 0.00876046487261521 -0.02218458896824256
11
Properties=species:S:1:pos:R:3:forces:R:3 energy=-48.4831387673139 pbc='F F F'
C  -0.1383868267530933 -1.270423984695912 0.06747371201560884 -0.34020354995786145 -0.33896336539929006 -0.0856908288152032
O  -1.2197580854746428 -0.4455030960899934 -0.2420405428852457 -0.4585746151948568 2.700631184018988 -0.11121038082651115
C  -0.7932490867916812 1.001348346305956 -0.06216543061755736 -1.7836961813546295 -1.9561263777675926 -0.16449499493626688
C  0.6771927768541125 0.9105654269394445 -0.012163484162780633 0.3448842082878124 -0.25658756010357314 -0.17383781698125272
C  1.0443245014939853 -0.3654890318971868 0.03350023620914441 0.647561307012187 0.021541553293906543 0.043471482856680434
H  -0.3301136211727637 -1.7595268764497733 1.0347457221787248 0.39410765316605595 0.06734786400284785 0.2780966021555161
H  -0.10786678314140048 -2.0892857417883004 -0.6629367623485225 0.24252767347077905 0.039943193461603736 -0.17431523647282493
H  -1.3058521958628548 1.3611495745778246 0.8373925105120233 0.3285197869024349 0.0601242734864519 0.32801051426851385
H  -1.2082047097172974 1.6200195533730242 -0.8716011340309927 0.20468984855985414 -0.3899790068696663 -0.24259659909528644
H  1.3225838181289358 1.7720843756413482 -0.1103204127273954 0.1481795746670612 0.06785818729244374 0.13766266202904287
H  2.057381379697261 -0.7355364146002296 -0.01197618925653756 0.2674210063149295 -0.018135488135922063 0.17153956312563198
11
Properties=species:S:1:pos:R:3:forces:R:3 energy=-47.75557500696959 pbc='F F F'
C  -0.12796963364667288 -1.2783466824550687 0.06837941875125843 -0.5886495927614697 -0.24453080297074037 -0.2307954764845806
O  -1.1485824523738344 -0.5132106017849571 -0.48305795013208247 -0.8288850264959066 3.8815853480493367 0.19198218401123307
C  -0.7678267443615352 1.052674545157456 -0.05386938774866052 -2.491337669539043 -3.309654390126198 -0.9150662144459563
C  0.6804892653225448 0.9287647413458018 0.023220872720869628 0.5978339915424363 -0.4305758133191183 -0.162623193847532
C  1.0364766472558387 -0.3548996380379224 0.04319459111010309 1.0658610019567374 0.09740388434830373 0.20261730646841003
H  -0.4517897054862422 -1.6477088282247074 1.0564345686037435 0.4964758075190574 0.2059675410940703 0.39142605674771536
H  -0.02387412791959459 -2.190786257126788 -0.5339084967385097 0.33762941840922855 0.11391090586201393 -0.20217531492986873
H  -1.3807378809310502 1.1615877458734338 0.8373539566995014 0.39737404992201875 0.13654957024603165 0.6781323398769586
H  -1.1947294401330737 1.7759745686479549 -0.7609257865205511 0.2940437542923916 -0.5247554433523226 -0.4604851414195645
H  1.3288562724969568 1.7780777532312968 -0.12656940116731857 0.28095723961852 0.093232954766009 0.21083518013868738
H  2.045636253635378 -0.7143476213626048 -0.0702215302725014 0.43214385690419405 -0.023486788231192716 0.2985818948721613
11
Properties=species:S:1:pos:R:3:forces:R:3 energy=-46.649756067376984 pbc='F F F'
C  -0.13182531703568637 -1.285831218508745 0.06661930890932263 -0.4667176217807289 -0.09125700902759437 -0.2899414631423596
O  -1.0528687651287238 -0.597594689251878 -0.7046896026725634 -1.4215424822658376 3.602674236189104 0.3407282874699276
C  -0.7498633606865125 1.1164465667448478 -0.023704889871381106 -2.3266547058130906 -3.320043696282206 -1.587937468536505
C  0.6770454019419718 0.9466662335828285 0.05714034326156249 0.8517380176441809 -0.600457119527833 -0.020718062879438844
C  1.0245244000585987 -0.3466587216009684 0.05265861905362438 1.2666996195872864 0.2691372764766528 0.4126153045016241
H  -0.5696775532207038 -1.5313319468621613 1.0519926609685801 0.4296295271112827 0.3037696284682624 0.3933623708819586
H  0.051562122893980405 -2.2700626119923175 -0.38988668882234384 0.32677050655043105 0.16666169690035754 -0.20658375193288792
H  -1.4371105310526586 0.959048428161495 0.7925638488935065 0.25463877118154205 0.03393066872984788 0.9317606616294791
H  -1.180099736018245 1.9172441188854366 -0.6329279470008222 0.3073186213131469 -0.4120218760039427 -0.5483576816831772
H  1.3321955762605704 1.7813199176692796 -0.1427450979291007 0.32586847139674185 0.055076086730605864 0.2080815525629416
H  2.0300613894243043 -0.6930068575968679 -0.12686610212975077 0.45174633315619267 -0.006533392733273438 0.36499867405864683
11
Properties=species:S:1:pos:R:3:forces:R:3 energy=-45.51168570914069 pbc='F F F'
C  -0.1472166623371779 -1.296858001102822 0.0586921675735724 -0.10955024859822908 0.13186152097095574 -0.2129595893552126
O  -0.9314070036898228 -0.7072826527364547 -0.9107940319920285 -1.620175609701447 2.208085241745698 0.11792894740585728
C  -0.7421604125356672 1.1813633909795511 0.030380363952210387 -1.5509499514707887 -2.2062613573845837 -1.5040040777214512
C  0.6609793248944643 0.9686942684266143 0.09042508563636315 0.9093410889327208 -0.7431247413290416 0.10002194787715679
C  1.0060177095295744 -0.342068868944815 0.06038137784419227 1.062773639457725 0.49845711416223226 0.5246762920898197
H  -0.683219128156618 -1.4116010942479478 1.021764831469995 0.24989186472269506 0.2718074596129365 0.2666792904597172
H  0.1196792303112481 -2.3287108883953946 -0.23064961040742651 0.22224566406384008 0.18785330770393738 -0.14320337628546057
H  -1.4685569240680154 0.7711215108364723 0.710955403116587 0.09400541155568103 -0.1447967055921647 0.7371584830879296
H  -1.1629965650853111 2.0475875600562627 -0.48472848547404773 0.2570611481883485 -0.2128088212943212 -0.3648393891150494
H  1.3313443322795888 1.7823478773199053 -0.159738894211797 0.21115751119013534 -0.03743204196381501 0.12736809290696255
H  2.0093836496322663 -0.670054172143017 -0.1864514153312734 0.2770291328017586 0.036044276844024906 0.3410257714299796
11
Properties=species:S:1:pos:R:3:forces:R:3 energy=-44.95498289482566 pbc='F F F'
C  -0.17058312915656806 -1.320240534042912 0.04546772729511554 -0.037359762900624365 0.021904675311450614 -0.05985828065739649
O  -0.7875948457754942 -0.8305455686529125 -1.0946210326388857 0.44916003494079787 0.27072219786401114 0.4540003059786019
C  -0.7481112225706554 1.2345889655584394 0.09797822630689464 0.22576382243752482 -0.24261295388372456 -0.07362648955000001
C  0.6285332392373394 0.9998745270797967 0.12231844378508343 -0.21858616920769933 -0.05676077222459263 -0.1414775465043548
C  0.9787325459819334 -0.34532048288592043 0.06078518787624433 -0.39187673347338825 0.0326343350792466 -0.30215924760411106
H  -0.7860974238724175 -1.2946144590941804 0.9716652261191658 0.06317358339870704 0.05317159061743973 -0.0628000798828822
H  0.1789321591570059 -2.3663250793087367 -0.06721088948450019 -0.02277878869408621 0.15440057052660577 0.049950501587679996
H  -1.47405549779954 0.6150651083708785 0.6148490847285335 0.10828566750841342 -0.015669397075615796 -0.09459135958241865
H  -1.1409898629412825 2.1636246579412353 -0.3246609553249142 0.10479443007809051 -0.135954320481578 0.11218520288772556
H  1.3272157434589202 1.782629169668412 -0.17671129122505602 -0.11321066298377354 -0.13629016941744485 0.04572907147315912
H  1.9835693428255123 -0.6458738358711454 -0.24933810405956652 -0.1731578165539887 0.0540565770418954 0.08414976119510098
11
Properties=species:S:1:pos:R:3:forces:R:3 energy=-45.55011516873037 pbc='F F F'
C  -0.13212180941651105 -1.3957737795571237 0.12376375487213179 -0.7310000739004161 -1.117125537441842 0.42912255823738926
O  -0.6964105656908165 -0.9166933262446731 -1.0499062431154609 2.6263803110696258 -0.2811093504124273 0.3748099678984208
C  -0.73217642956872 1.3315533489354048 0.062185089180991644 -0.24821046751563255 0.9933167369112698 1.158537163362543
C  0.5597724343570003 0.9883436245620238 0.10829363830670534 -0.4223926222904315 0.8278740501963856 -0.235548540993072
C  0.8901785355197004 -0.37771986597423785 -0.05256134757312282 -1.2533074659277428 -0.8851930226375152 -1.1361930513665324
H  -0.7474411979388063 -1.3142358489107304 1.0302713086786655 -0.10931804788340631 0.08775560278066018 0.10748801015205617
H  0.26353112633716674 -2.4160420306708312 0.03898147127751515 -0.0547350233914478 -0.19301696703088872 0.16027404767495596
H  -1.5450019794993342 0.7035155720849318 0.34595680830602704 -0.31153393821806585 -0.8923290705299681 -0.31672283873513546
H  -1.0862038156944724 2.308699143597343 -0.18138398976824274 0.25221409679104423 1.0448371628975517 0.11317209329670957
H  1.327432103585447 1.7213592726034461 -0.014560018459156214 0.4659339729267326 0.4876625492556665 -0.32746175411505324
H  1.8838712733712155 -0.6430560775312218 -0.4106261730015017 -0.21450954507392314 -0.07142357765750416 -0.32568085649372236
11
Properties=species:S:1:pos:R:3:forces:R:3 energy=-46.51999366369546 pbc='F F F'
C  -0.08717457053783668 -1.463048176886663 0.20054995416348229 -0.8000764499622333 -1.3196136995999033 0.6604149568552393
O  -0.6162285950173271 -0.9933812459724876 -1.0015768032684922 3.10408967644451 0.3037287287444944 0.7585208843169301
C  -0.7352352315168651 1.417303368860772 0.024211977876116546 -0.6460108319305987 0.691693924465313 0.734332856802103
C  0.5040040485004464 0.9719892112446851 0.09062856397635326 -0.23128906862762932 0.7983522940722554 -0.12462738486846293
C  0.8018670950477007 -0.40077955155262196 -0.163498478280506 -1.5291101414460062 -1.0464241601423365 -1.6833073470560853
H  -0.7088684368229481 -1.3330577959440968 1.0866189351802127 -0.17269116412335628 0.06333074553653083 0.1934947155208462
H  0.3469103580197484 -2.4622537378983465 0.1427265085513174 -0.06356325015577009 -0.31706361570480185 0.13555707699146158
H  -1.5995562346087893 0.8075252090402832 0.060940346231529025 -0.5466443242730222 -1.0805237364786184 -0.4850781321109079
H  -1.0274091831551428 2.4335562074388206 -0.02707730074273191 0.3396083184996638 1.365624873304452 0.33471835333048977
H  1.3193204206216886 1.6488750378339692 0.15403995251036162 0.798462821640279 0.667880977272576 -0.10635521086183253
H  1.783759456253191 -0.6396412647857053 -0.5672311343614165 -0.24835945472749651 -0.1272699625822497 -0.41993172290486286
11
Properties=species:S:1:pos:R:3:forces:R:3 energy=-47.470123722278004 pbc='F F F'
C  -0.03537872459310824 -1.5228747656467128 0.27518085799786485 -0.5270052395715985 -0.9726936228732532 0.5988964086266801
O  -0.5419974633009429 -1.069732055611557 -0.9545365501748331 2.4405014182691653 0.6882586982644581 0.7159979188201543
C  -0.7500037954023645 1.499541277942419 -0.013911722651862028 -0.4777215730250336 0.34332280390866277 0.2419926046997917
C  0.44879009610968007 0.962454717732786 0.07273675193214069 -0.006936464554740104 0.38469948771202245 -0.010436930497755487
C  0.7110994700841825 -0.4229977120731931 -0.2699325711076946 -1.412471488837457 -0.7806648600851626 -1.5667675134165715
H  -0.6688731474137578 -1.3517532974302031 1.1418773738420813 -0.13528964778980612 0.04230711118859424 0.1728650021290051
H  0.4313006271898324 -2.505787137997948 0.2468731039872706 -0.023252562361101726 -0.24144042467033722 0.08717675516436846
H  -1.625351100728748 0.9388731569413744 -0.22685496058030052 -0.5523570093998327 -0.8451212764250224 -0.49660423922240043
H  -0.9681192245805016 2.5297893778041103 0.1286172915161476 0.28023565128596417 1.011210994514544 0.4104030146639088
H  1.2953880488010994 1.5624975983466634 0.32273745093614414 0.6693922172655521 0.47648762889425805 0.14170511949024975
H  1.6804652666061473 -0.6358049638679438 -0.72250003121118 -0.24594317735486623 -0.10715671664569083 -0.2953463598925159
11
Properties=species:S:1:pos:R:3:forces:R:3 energy=-48.57715041107531 pbc='F F F'
C  -0.14108255907542738 -1.2716063143662346 0.06674025277380388 -0.33236092316574956 -0.005527395683930942 -0.09488518655932535
O  -1.2215241743113876 -0.42683907371823654 -0.24702552507089057 -0.2979762209805333 1.8336680707169861 -0.07558827462815718
C  -0.8051807748251621 0.9870612917034647 -0.06339666715488568 -1.1900571483607965 -1.3899318564126766 -0.13025454352773685
C  0.6786133823825496 0.909449302529758 -0.012947953588813165 0.10654021506650592 -0.27379863893303835 -0.16850793772504788
C  1.0488075365031369 -0.3660209225063148 0.03404160068211573 0.36401644901954366 0.037140463468213925 0.030897965214205136
H  -0.3293026499542582 -1.7570152729898054 1.037364364980687 0.31286611140392306 0.10263300005858415 0.21499278482358106
H  -0.10462452116271456 -2.0909040627089555 -0.6622447757739376 0.14084774558453617 0.07593613334205919 -0.1869166868906762
H  -1.3047280389395903 1.3581532855970584 0.8401724476798256 0.29665454195870583 0.049852125002687854 0.3038230769247507
H  -1.2064578219299396 1.61968473354562 -0.8715883672333872 0.16598985283568715 -0.4202318076902241 -0.19596239130641602
H  1.3238927444148085 1.772771877219101 -0.10950699350866694 0.09054494097653969 0.04799148821036106 0.1395343428929849
H  2.059566603082282 -0.7353833702305915 -0.011645438331225487 0.33899484346908154 -0.060612901086033365 0.16937393526567873
11
Properties=species:S:1:pos:R:3:forces:R:3 energy=-47.98461606386809 pbc='F F F'
C  -0.13261501624003727 -1.278408606156493 0.06635357594351575 -0.5028328565007747 0.16816792766409003 -0.25031190716327534
O  -1.1507319611805922 -0.4865654489235065 -0.4893392006100869 -0.5039195433608674 3.2599720512245383 0.3323269233063659
C  -0.7839046874669973 1.0283519256802358 -0.060231030684503487 -1.8330831646555938 -2.904131831817083 -0.8642031378263397
C  0.6825863143906075 0.927129953038636 0.023100567050389476 0.26220203556142124 -0.4586133609510786 -0.18857259613312052
C  1.043554313832595 -0.3553968768646742 0.045187783713593596 0.6387822860752855 0.10096166481307749 0.18211246205341577
H  -0.45244607876731746 -1.6417285296351392 1.0593124402552947 0.41141280162244004 0.23841908291184014 0.2807305466698812
H  -0.018599649945558117 -2.1930548909437095 -0.530435784584475 0.18351548579743987 0.1798662681556278 -0.2524074484427125
H  -1.380087198730898 1.1551534668575878 0.8414632005424025 0.3675973417494361 0.12653239479092346 0.6208188259910948
H  -1.1920952951691963 1.777050351794798 -0.7598831598681708 0.24823715947652958 -0.6859440277082304 -0.3766933517563458
H  1.3312442991248585 1.7790224576722935 -0.1254842079915766 0.17706897506881356 0.0629266522157014 0.22578219852457615
H  2.048916543834281 -0.7138704250659703 -0.06999048925892233 0.5453841699032741 -0.09163966474576411 0.29193574789251514
11
Properties=species:S:1:pos:R:3:forces:R:3 energy=-46.88064745185784 pbc='F F F'
C  -0.1359139383116804 -1.2850687718314318 0.06372225611619511 -0.362259621450753 0.25922950049226035 -0.31947013918548023
O  -1.0576641890427638 -0.5745043951629706 -0.7107343780426179 -1.0442597304679684 3.39520883748933 0.630473353900072
C  -0.7642589866157106 1.0923224298740992 -0.03423066653384105 -1.7788777000063787 -3.1898980193383037 -1.6162111719087342
C  0.6798930060718829 0.9444583773244469 0.05835460316700051 0.5042483810521525 -0.5761533705590959 -0.08104797789159368
C  1.0327131617902305 -0.3463227243587971 0.0562598503151134 0.8010004911381117 0.19878769512445996 0.37391788600003767
H  -0.5716391354347911 -1.5234091068672233 1.053587878614801 0.39162521158534314 0.3139940106853737 0.2729110929751933
H  0.05713367685551596 -2.27165976610296 -0.38443642247341 0.1841366718240926 0.23632650549750597 -0.2778131114768933
H  -1.4371676019661384 0.9505863121707088 0.7967761203437486 0.22473266554777424 0.05674929965289234 0.8973201149765586
H  -1.1771868521788518 1.9199905599480676 -0.6305737616501977 0.2693580132586826 -0.6429339284229222 -0.483699396037612
H  1.3347964655778513 1.781908352099429 -0.14183877537701728 0.22119457942616372 0.030231480305944854 0.24153502199050855
H  2.0331432161634946 -0.6921330141956806 -0.12674926071171727 0.5914220286267405 -0.07985133393988976 0.3590287616111813
11
Properties=species:S:1:pos:R:3:forces:R:3 energy=-45.63052643799983 pbc='F F F'
C  -0.14884810783581484 -1.295493373338989 0.055986298204295404 -0.06197536058385517 0.34640271586437443 -0.2713463069266456