16
Properties=species:S:1:pos:R:3:forces:R:3 energy=-487.88692480192697 pbc="F F F"
C        0.91966200      -0.75521000      -0.68586500      -0.11108409       0.07830821       0.08552843
C        0.47811100      -0.58764100       0.78808200      -0.02123642       0.21158279      -0.25834687
C        0.82978100       0.90924400       0.60972200      -0.10034097      -0.10577776      -0.06841826
C        0.29850400       0.65575200      -0.82145900       0.04056985      -0.19615433       0.25204185
C       -1.19154600       0.37600300      -0.56485900       0.08856973      -0.07811581       0.10132170
C       -1.05485100      -0.57368300       0.66257300       0.07867583       0.08980191      -0.10663050
H        0.47999900      -1.57410800      -1.26780700       0.03906796       0.22829467       0.16535641
H        2.00723200      -0.75506700      -0.80679300      -0.23465178      -0.00531718       0.02023189
H        0.90902200      -1.19001200       1.59238400      -0.09119189       0.12964682      -0.17480725
H        1.90716100       1.09909600       0.63526400      -0.23263557      -0.03499037       0.00335335
H        0.30686300       1.64352400       1.23432400       0.06340004      -0.22099467      -0.17382572
H        0.54667300       1.31828800      -1.65495400      -0.04974900      -0.14165142       0.17660728
H       -1.67788800      -0.10445800      -1.42122700       0.13983615       0.02759666       0.16301808
H       -1.75197000       1.28903200      -0.33481000       0.14824410      -0.15449600       0.02094667
H       -1.46433100      -1.57235900       0.47404800       0.11304662       0.17861985      -0.02980191
H       -1.54230100      -0.17904400       1.56117700       0.12947945      -0.00635339      -0.17657516
16
Properties=species:S:1:pos:R:3:forces:R:3 energy=-487.7590895862582 pbc="F F F"
C        0.91249900      -0.75454100      -0.70301100      -0.13927064       0.18783319       0.18661243
C        0.49183700      -0.60205800       0.78413000      -0.05805409       0.08252244      -0.25218776
C        0.83434200       0.88443400       0.63426400      -0.04395094       0.00143379       0.02739041
C        0.29194900       0.66978600      -0.79162300       0.11100349      -0.10756129       0.32366341
C       -1.19895800       0.34398600      -0.58695400       0.20748018      -0.05387013       0.21926049
C       -1.04463900      -0.55352500       0.68166900       0.05851137       0.07099329      -0.07803168
H        0.44428100      -1.57789600      -1.26060200       0.07061474       0.39645633       0.08959507
H        1.99296200      -0.76610800      -0.87109500      -0.20779707       0.00150364       0.14996802
H        0.92799600      -1.20977200       1.57849200      -0.11618927       0.02334966      -0.12929150
H        1.91177500       1.08135300       0.60973900      -0.23925086      -0.03714072       0.12317896
H        0.33121100       1.62162000       1.27071200       0.06174398      -0.26505412      -0.08268338
H        0.61732900       1.46237500      -1.45819600      -0.32403709      -0.40622110      -0.68494293
H       -1.65379800      -0.21410300      -1.41835900       0.34756325       0.17850511       0.14186331
H       -1.81415100       1.23533700      -0.42864800       0.15438365      -0.12446796       0.15468554
H       -1.48478900      -1.54947900       0.57405600       0.04117660       0.18333942      -0.08423471
H       -1.48505800      -0.07358300       1.56198200       0.07607269      -0.13162153      -0.10484568
16
Properties=species:S:1:pos:R:3:forces:R:3 energy=-487.05576919626253 pbc="F F F"
C        0.90537900      -0.77528600      -0.72206700      -0.10341174       0.14225697       0.31517296
C        0.49711700      -0.58805600       0.76529400      -0.08244512      -0.36673137      -0.02074629
C        0.83492200       0.87773000       0.62066000      -0.23596462      -0.11556496       0.04131628
C        0.26307200       0.63017600      -0.83835000       0.60198012       0.65953927       1.54884019
C       -1.22334700       0.32131600      -0.62314100       0.32450481      -0.01220674       0.36578970
C       -1.04071900      -0.54306800       0.66903000      -0.01027110      -0.03061437      -0.03070136
H        0.44255900      -1.63517900      -1.22996100       0.03515505       0.54515189      -0.00377194
H        1.97795300      -0.77300100      -0.92048000      -0.10608757      -0.02211494       0.21637582
H        0.93680500      -1.17160300       1.56734200      -0.09346232      -0.24863191       0.06853225
H        1.91744600       1.09498000       0.58970700      -0.46597198      -0.17788219      -0.02612287
H        0.34869100       1.63603200       1.25104500      -0.02843413      -0.41833648      -0.10289509
H        0.69649400       1.54083300      -1.18654500      -0.48279716      -0.09020638      -2.55119068
H       -1.72789000      -0.25771500      -1.41577700       0.58752103       0.25089442       0.12885073
H       -1.81253700       1.22997900      -0.48028400       0.04812933      -0.10626002       0.22952584
H       -1.46007700      -1.54856600       0.59489400      -0.07267346       0.14166874      -0.10899910
H       -1.48017100      -0.04300100       1.53775800       0.08422887      -0.15096194      -0.06997643
16
Properties=species:S:1:pos:R:3:forces:R:3 energy=-485.7574389935229 pbc="F F F"
C        0.89568800      -0.78138800      -0.73854800      -0.03580929      -0.08562908       0.29786840
C        0.49796300      -0.55950300       0.73834600      -0.04638607      -0.51112236       0.07111327
C        0.85597200       0.89797700       0.62174900      -0.38639537      -0.31063154      -0.08900280
C        0.21946700       0.57765800      -0.97642900       0.91733080       1.19195665       2.43742135
C       -1.23867300       0.30614700      -0.64465400       0.21702795      -0.03347189       0.28464878
C       -1.03716300      -0.53197500       0.66214400      -0.03870981      -0.06213757      -0.02881284
H        0.44419600      -1.66371800      -1.21570600       0.05011571       0.46821733       0.00605437
H        1.96724700      -0.77108000      -0.93874600      -0.07363721      -0.02204212       0.17473199
H        0.94177200      -1.13468900       1.54614700      -0.07906279      -0.30291360       0.16001873
H        1.94347700       1.10747400       0.60194000      -0.57986326      -0.20772652      -0.13957401
H        0.36273300       1.65524400       1.25107900      -0.02893763      -0.48377379      -0.20302011
H        0.72392000       1.52037400      -0.94384800      -0.41916483       0.24411971      -3.08977307
H       -1.77024500      -0.27813400      -1.41258400       0.44035888       0.17907897       0.13497614
H       -1.80629000       1.22714000      -0.50213600       0.02264924      -0.07546950       0.19816744
H       -1.44375900      -1.54440800       0.60457200      -0.05984001       0.13780870      -0.09983535
H       -1.47855500      -0.03064200       1.53043100       0.10032369      -0.12626341      -0.11498230
16
Properties=species:S:1:pos:R:3:forces:R:3 energy=-484.8284162665928 pbc="F F F"
C        0.88349400      -0.78169400      -0.75041300      -0.07900455      -0.13106165       0.09721728
C        0.49723800      -0.53002000       0.71392000      -0.03335637      -0.06741632      -0.17827127
C        0.88462200       0.93487700       0.62778900       0.04561180       0.11094833       0.07358659
C        0.18121000       0.53735300      -1.13210700       0.58943271       0.88187026       1.41725215
C       -1.24432500       0.29476500      -0.65630500       0.10443713      -0.08967418       0.03860269
C       -1.03494400      -0.52322400       0.65754000       0.01939946       0.02178369      -0.07602062
H        0.44397900      -1.68012300      -1.20515600       0.07400521       0.34041049       0.08586079
H        1.95783600      -0.76928700      -0.94785400      -0.11890290      -0.00418723       0.12557402
H        0.94517000      -1.10492900       1.52843300      -0.06766339      -0.10870454       0.03958321
H        1.96939100       1.11697800       0.62183100      -0.36358902      -0.15162997       0.01792589
H        0.37192100       1.67114300       1.25885500       0.02238252      -0.36400174      -0.14084922
H        0.72571900       1.46122100      -0.74447300      -0.59231581      -0.53809815      -1.57663357
H       -1.79122400      -0.28756500      -1.41139000       0.22988984       0.10042639       0.17209698
H       -1.79945500       1.22455900      -0.51280600       0.06598246      -0.07902951       0.13360858
H       -1.43327300      -1.54120300       0.60818700       0.00792776       0.15884588      -0.08345271
H       -1.47937000      -0.02620500       1.52731500       0.09576313      -0.08048175      -0.14608079
16
Properties=species:S:1:pos:R:3:forces:R:3 energy=-484.58225318752693 pbc="F F F"
C        0.87086000      -0.78446200      -0.76271600      -0.12676739      -0.16186338      -0.14698564
C        0.49742800      -0.50216200       0.69335900       0.00730542       0.31819677      -0.33905978
C        0.90716200       0.97657300       0.61758900       0.27497878       0.52886657      -0.14537191
C        0.14369300       0.49141400      -1.25837700       0.16715901       0.21894293       0.77204092
C       -1.24912500       0.28281300      -0.66503400      -0.03449495      -0.14016061      -0.21719208
C       -1.03327300      -0.51493700       0.65332800       0.07508090       0.11128223      -0.13287078
H        0.44279900      -1.69621400      -1.19681400       0.09415939       0.18195138       0.14299629
H        1.94847100      -0.76749000      -0.95634400      -0.19029894       0.01105362       0.06385418
H        0.94996200      -1.07841600       1.51091000      -0.04907475       0.10108441      -0.13632519
H        1.99116700       1.12344200       0.64673900      -0.15468788      -0.10297220       0.22886674
H        0.38293100       1.68252600       1.26961900       0.10482803      -0.25722078      -0.03117758
H        0.73111000       1.41717400      -0.56754900      -0.50863265      -0.89263201      -0.04531248
H       -1.80739000      -0.29522400      -1.41277800       0.04769042       0.03626028       0.17467980
H       -1.79311500       1.22154900      -0.52311700       0.12578133      -0.10140268       0.05807622
H       -1.42441200      -1.53784700       0.61055000       0.07770425       0.18336710      -0.07192781
H       -1.48011500      -0.02215400       1.52438000       0.08926904      -0.03475362      -0.17429089
16
Properties=species:S:1:pos:R:3:forces:R:3 energy=-484.74543876609226 pbc="F F F"
C        0.84256300      -0.77993500      -0.80140600      -0.03266024      -0.14021422      -0.27460162
C        0.50762500      -0.42486100       0.65071100       0.06038319       0.29020132      -0.26189163
C        0.96819200       1.05008300       0.68366700       0.16081526       0.27040922      -0.00557626
C       -0.00304100       0.25729000      -1.52533500      -0.21444877      -0.38746662       0.63003253
C       -1.28020500       0.22798500      -0.72268400      -0.13664528      -0.01688585      -0.39854546
C       -1.02247500      -0.47640800       0.62962400       0.04553920       0.13340477      -0.15101076
H        0.46125500      -1.75846000      -1.13644600       0.13317409       0.12109161       0.20803007
H        1.91294100      -0.73696900      -1.03184300      -0.22656906       0.08655897      -0.00103502
H        0.96253200      -1.03743800       1.44026500      -0.04100459       0.15388450      -0.20731947
H        2.05247000       1.12867800       0.78911500      -0.13219274      -0.08759554       0.26094257
H        0.45983200       1.66534800       1.43013500       0.18638798      -0.24193694       0.09579512
H        0.76688600       1.51349100      -0.30617600      -0.12237798      -0.23391432       0.23950766
H       -1.92965700      -0.33967400      -1.40629200      -0.07890780      -0.02668735       0.17511360
H       -1.75481500       1.21073500      -0.62460300       0.17711290      -0.13289924      -0.02603209
H       -1.38404900      -1.51314500       0.62753600       0.12694463       0.17154653      -0.05345338
H       -1.48263800       0.02759400       1.48631500       0.09444921       0.04050315      -0.22995585
16
Properties=species:S:1:pos:R:3:forces:R:3 energy=-485.0026644239066 pbc="F F F"
C        0.83595300      -0.74870200      -0.83454500       0.03419746      -0.12416707      -0.31960095
C        0.51582100      -0.36570100       0.61879800       0.03187265       0.13713134      -0.15874535
C        1.00940900       1.08010700       0.77654000       0.07573390       0.24235903      -0.02292965
C       -0.11256700       0.04362900      -1.68281500      -0.25644296      -0.43146744       0.76555234
C       -1.32180100       0.15605400      -0.79485800      -0.08031690       0.14564320      -0.39811256
C       -1.01536000      -0.43159100       0.60067200       0.01779252       0.07484987      -0.13357541
H        0.50896400      -1.78166800      -1.07281000       0.13170773       0.21319913       0.15175287
H        1.89211000      -0.67925200      -1.11598800      -0.19464787       0.13207150       0.05453240
H        0.96102800      -1.02239100       1.37589900      -0.03674390       0.09176479      -0.14908555
H        2.09846700       1.12104000       0.87582200      -0.20661539      -0.10241986       0.10517339
H        0.55260600       1.59855600       1.62445000       0.13127145      -0.24225102      -0.02307658
H        0.76462400       1.65277100      -0.12843800      -0.01061104      -0.15113776       0.24216826
H       -2.10198000      -0.37745900      -1.35599600      -0.00647288      -0.03151722       0.16750590
H       -1.68256000       1.19281600      -0.76253300       0.18350872      -0.15422894       0.02021608
H       -1.34853300      -1.47622100       0.66194600       0.08044731       0.15014758      -0.05893336
H       -1.48520800       0.10751900       1.42983700       0.10531919       0.05002288      -0.24284185
16
Properties=species:S:1:pos:R:3:forces:R:3 energy=-485.1413032470405 pbc="F F F"
C        0.83864100      -0.71934500      -0.85594400       0.05001478      -0.28077907      -0.37239224
C        0.51614800      -0.32465800       0.59708900      -0.01313708       0.05917847      -0.14422711
C        1.02879900       1.09603600       0.84675000       0.04980524       0.25393843      -0.03857063
C       -0.19784500      -0.16764600      -1.76907700      -0.16000454      -0.16953560       0.90552099
C       -1.35849500       0.07252800      -0.84805400      -0.05625114       0.26903346      -0.35739539
C       -1.01673200      -0.40205600       0.58045900      -0.01079312       0.02257619      -0.10285854
H        0.59652600      -1.79318400      -1.02443100       0.10977695       0.21423801       0.12157469
H        1.87863700      -0.59331700      -1.17581200      -0.19791392       0.15013705       0.10176146
H        0.95195500      -1.01215400       1.33181900      -0.02248579       0.07722864      -0.11123233
H        2.12367800       1.12155900       0.87185600      -0.23032499      -0.09552274       0.03881695
H        0.65348300       1.50878600       1.78877800       0.07608431      -0.19148752      -0.13435978
H        0.71249600       1.76798200       0.03881100       0.02760857      -0.20564591       0.19530071
H       -2.26989200      -0.35391700      -1.28287900       0.09087986      -0.06315634       0.14746039
H       -1.52880600       1.16175000      -0.88967100       0.12341897      -0.19357895       0.05677460
H       -1.33714200      -1.44391500       0.71173200       0.06053750       0.13391394      -0.06797418
H       -1.49054300       0.18629300       1.37328300       0.10278443       0.01946194      -0.23819959
16
Properties=species:S:1:pos:R:3:forces:R:3 energy=-485.16431428078147 pbc="F F F"
C        0.82941400      -0.70748400      -0.87774400       0.08764678      -0.38222173      -0.37578798
C        0.50881700      -0.30367900       0.57917300      -0.07844284       0.01511870      -0.13944760
C        1.04184800       1.09375200       0.90421500       0.03287339       0.25617986      -0.04910358
C       -0.27845600      -0.35629200      -1.80437200      -0.01396653       0.02125834       0.90740199
C       -1.39246300      -0.01503000      -0.87639700      -0.04662370       0.39040220      -0.32704184
C       -1.02894400      -0.37614300       0.57779100      -0.01335161       0.02758220      -0.07922808
H        0.72870200      -1.80994400      -0.98967400       0.05247572       0.19024325       0.11903425
H        1.83762700      -0.47736000      -1.24083600      -0.20836164       0.14125660       0.13959828
H        0.93987900      -1.01559500       1.29243500      -0.01590713       0.05670920      -0.07644963
H        2.13358900       1.13175400       0.81500500      -0.23802612      -0.11268654       0.01154894
H        0.78149300       1.39435400       1.92532000       0.01191340      -0.16107083      -0.20351915
H        0.63402000       1.84973600       0.22208500       0.05068675      -0.24533719       0.11180763
H       -2.38551000      -0.31749000      -1.22621800       0.18736644      -0.12938387       0.15174157
H       -1.37382300       1.08544700      -1.01668100      -0.00489824      -0.16871585       0.11818918
H       -1.36446400      -1.39701600       0.79949400       0.08773740       0.10965185      -0.10735282
H       -1.49211000       0.28329200       1.31922000       0.10887794      -0.00898620      -0.20139116
16
Properties=species:S:1:pos:R:3:forces:R:3 energy=-484.7669945880329 pbc="F F F"
C        0.85020626      -0.73864731      -0.82235177       0.76656071      -0.48020585       0.94526310
C        0.50698366      -0.39474002       0.63729207       0.08629304      -0.07182662       0.13256638
C        0.99691978       1.04114442       0.78802857       0.02571822       0.95415467      -1.92600092
C       -0.08111163       0.07501435      -1.55449693      -0.65870070       0.33487188      -2.05016089
C       -1.32519790       0.12435374      -0.77910601       0.63583781       0.09608663       0.54393064
C       -1.03223735      -0.43819372       0.61726886       0.06281527       0.00458337       0.20321911
H        0.57996086      -1.75658447      -1.08862610      -0.13372728      -0.39857260       0.02156509
H        1.89277199      -0.61465118      -1.11222966       0.08612649       0.13548322       0.15812890
H        0.94332846      -1.05250801       1.39876100      -0.03145134       0.08489272      -0.11499312
H        2.08517575       1.13130727       0.73348958      -0.12408435      -0.26154131       0.37376804
H        0.61109867       1.54683715       1.64577091      -0.10332647       0.17432626       0.57990896
H        0.66838049       1.63646452      -0.15321092       0.23585561      -0.79287160       1.42529757
H       -2.10333457      -0.33835639      -1.33238462      -0.70750852      -0.77286035      -0.47839773
H       -1.61081709       1.15142976      -0.79348758      -0.33449072       1.01038077       0.34457600
H       -1.39236719      -1.46476616       0.71961553       0.06625950      -0.01486088      -0.06139313
H       -1.49003108       0.14883511       1.41821960       0.12782271      -0.00204030      -0.09727800
16
Properties=species:S:1:pos:R:3:forces:R:3 energy=-485.0640162143734 pbc="F F F"
C        0.84042148      -0.72253538      -0.84922592       0.72003264      -0.22308590       0.65983197
C        0.50785893      -0.34950179       0.60829928       0.05722414      -0.09611872       0.12914503
C        1.02002293       1.06632265       0.84571422       0.02393687       0.65301686      -1.09902399
C       -0.18007360      -0.14009100      -1.68052347      -0.62780332      -0.04474564      -1.32875131
C       -1.35778458       0.05388761      -0.82695853       0.42991783       0.15743199       0.19820299
C       -1.03048970      -0.40722990       0.59771228       0.05675898       0.04422945       0.18698458
H        0.65422686      -1.78429885      -1.03914740      -0.06884930      -0.23995580       0.05851288
H        1.86576352      -0.54602118      -1.17644745       0.02413351       0.16390023       0.14594608
H        0.94165320      -1.03424588       1.34582897      -0.02224050       0.05113621      -0.07985128
H        2.10959842       1.13146303       0.77410714      -0.13841311      -0.22802750       0.20937851
H        0.69588935       1.47106113       1.78663196      -0.07527829       0.06311214       0.40442085
H        0.65065471       1.74413247       0.03282253       0.12866145      -0.51490437       0.66798577
H       -2.24623343      -0.32857415      -1.27971852      -0.62079837      -0.55038862      -0.19966715
H       -1.49214184       1.12055919      -0.90512488      -0.08011201       0.75308915       0.23585149
H       -1.37853363      -1.43126780       0.75955579       0.07270020       0.00038928      -0.07648439
H       -1.49118892       0.21595248       1.36903446       0.12012928       0.01092124      -0.11248203
16
Properties=species:S:1:pos:R:3:forces:R:3 energy=-484.53988013535076 pbc="F F F"
C        0.86576778      -0.77050047      -0.77291043      -0.23771731       0.06539331      -0.04714948
C        0.50529686      -0.48428569       0.69481072      -0.06986758       0.40403701      -0.42712344
C        0.94623226       0.99600423       0.67356361      -0.01116007       0.36969687      -0.86855269
C        0.11838188       0.50027779      -1.29491005       0.14963250      -0.23532321       1.04934843
C       -1.26905024       0.27043830      -0.68970180       0.07573829      -0.23887476      -0.07104094
C       -1.03624017      -0.50026705       0.65561247       0.23109680       0.26030694      -0.30056868
H        0.43280052      -1.69421165      -1.18634319       0.15519967       0.30187921       0.17308858
H        1.94361076      -0.75244359      -0.98288557      -0.30561356       0.02235559       0.10373284
H        0.94641808      -1.08853067       1.50453914      -0.08795080       0.18617370      -0.25801248
H        2.03438526       1.13117706       0.65140745      -0.30549570      -0.13354411       0.28682531
H        0.44422181       1.69338619       1.35520594       0.18076269      -0.34988229      -0.12668641
H        0.70454277       1.41682733      -0.52093530      -0.33629543      -0.82050980       0.49148116
H       -1.80645642      -0.34751284      -1.42871572       0.11845305       0.14857544       0.27525506
H       -1.84351581       1.19777094      -0.57139463       0.18993347      -0.19240106       0.05535576
H       -1.41960124      -1.53028854       0.63902626       0.11013518       0.29753278      -0.08281248
H       -1.48698310       0.01372667       1.51580910       0.14314881      -0.08541561      -0.25314053
16
Properties=species:S:1:pos:R:3:forces:R:3 energy=-484.9645414796519 pbc="F F F"
C        0.85592346      -0.74536744      -0.81172557      -0.04285190      -0.11652764      -0.47635650
C        0.51227418      -0.39087896       0.64174350      -0.01618526       0.17943570      -0.23504185
C        0.99668847       1.06166466       0.76207315       0.09588989       0.19333901       0.15615583
C       -0.08945847       0.07066646      -1.64626492      -0.29642102      -0.66210077       0.69435381
C       -1.31299359       0.14387264      -0.77721205      -0.14364837       0.23942772      -0.53184260
C       -1.02442978      -0.43972851       0.62385717       0.06305733       0.12906660      -0.21803223
H        0.56276480      -1.77541341      -1.09503700       0.09948766       0.19572558       0.18864801
H        1.90789891      -0.62297513      -1.09284842      -0.17212633       0.03270659       0.15744400
H        0.94933465      -1.04827768       1.40445807      -0.00423333       0.17712224      -0.18270576
H        2.08884834       1.12232462       0.75025827      -0.16427814      -0.12586259       0.23779890
H        0.60531073       1.56756204       1.64930445       0.16556778      -0.16877854      -0.06433877
H        0.67240333       1.62017758      -0.12394487      -0.05575941      -0.07220713       0.23629806
H       -2.10476594      -0.36348895      -1.35035094       0.11332710      -0.05996270       0.21311027
H       -1.64474165       1.18994569      -0.76257498       0.04614146      -0.10699051       0.14793246
H       -1.39034403      -1.47255746       0.71476492       0.15388277       0.20221479      -0.11752198
H       -1.48638967       0.14128218       1.43061217       0.15814976      -0.03660836      -0.20590165
16
Properties=species:S:1:pos:R:3:forces:R:3 energy=-484.5017635583135 pbc="F F F"
C        0.87942533      -0.76919781      -0.75220336      -0.23937890      -0.50492352       0.15126852
C        0.49923790      -0.50804251       0.71637230      -0.06240460       0.34814418      -0.48429249
C        0.91990890       0.97659476       0.65873794      -0.03807810      -0.14248444      -0.28223938
C        0.12081862       0.47108268      -1.22230338       1.48463328       2.18947703       1.27575495
C       -1.25420775       0.29386093      -0.66044102      -0.37333934      -0.51115710      -0.03268979
C       -1.04005666      -0.51666905       0.65760874       0.14405467       0.06653032      -0.06239483
H        0.44283569      -1.66947007      -1.20547656       0.17767420       0.09547523       0.22763919
H        1.95913429      -0.75383613      -0.94333524      -0.31011491       0.08371489       0.04815339
H        0.93806989      -1.11154879       1.52455861      -0.08763292       0.16027626      -0.11939694
H        2.00662598       1.12382622       0.64857667      -0.38218738      -0.08584032       0.03840956
H        0.41315815       1.68237844       1.32809611       0.09548863      -0.30883035      -0.29001684
H        0.71050111       1.46639212      -0.74526933      -0.80796989      -1.43188944      -0.53004743
H       -1.77920486      -0.29394041      -1.42847689      -0.11587620       0.02460689       0.30707221
H       -1.82434050       1.21909550      -0.51790741       0.26722964      -0.15158855       0.01182824
H       -1.43027036      -1.54132379       0.60194559       0.10347187       0.23401583      -0.04790293
H       -1.49980929      -0.02941711       1.52699408       0.14442996      -0.06552689      -0.21114542
16
Properties=species:S:1:pos:R:3:forces:R:3 energy=-484.77461495136885 pbc="F F F"
C        0.89285074      -0.76944998      -0.73312571      -0.03241223      -1.25046278       0.44863394
C        0.49392940      -0.52912250       0.73581919       0.07298718       0.00767639      -0.11682341
C        0.89597275       0.95932486       0.64418540      -0.60480222      -1.03211162      -0.14593875
C        0.12924882       0.44541588      -1.11419918       3.29644980       5.57577519       1.41998404
C       -1.24301714       0.31498726      -0.63338034      -0.99933430      -0.73536250       0.10859052
C       -1.04388423      -0.53165137       0.65967910       0.02954586      -0.11385682       0.13843537
H        0.45229971      -1.64721623      -1.22248993       0.20127554      -0.07898495       0.23938415
H        1.97259223      -0.75454240      -0.90764676      -0.28531431       0.13219277       0.00508528
H        0.93056301      -1.13212759       1.54246247      -0.11722592       0.06261274       0.00597438
H        1.98071375       1.11732382       0.64517762      -0.44371382      -0.03713704      -0.21661695
H        0.38535375       1.67231407       1.30341492       0.04981096      -0.30864321      -0.35676751
H        0.71131971       1.51044888      -0.98915818      -1.40719313      -2.20794694      -1.64566433
H       -1.75498468      -0.24555345      -1.42790174      -0.30713966      -0.05881789       0.31759357
H       -1.80634337       1.23805468      -0.46981518       0.30237152      -0.09038267      -0.00086894
H       -1.43972288      -1.55070265       0.56868632       0.09674102       0.19385871      -0.02591166
H       -1.51119807      -0.06828816       1.53669953       0.14795368      -0.05840939      -0.17508969
16
Properties=species:S:1:pos:R:3:forces:R:3 energy=-485.12603326632063 pbc="F F F"
C        0.84839364      -0.72269846      -0.84126579      -0.01711458      -0.27053943      -0.51746792
C        0.51323314      -0.34810788       0.61422265      -0.05954596       0.08527378      -0.21900699
C        1.02050430       1.07924900       0.83338139       0.04210885       0.22270235       0.07308466
C       -0.18730688      -0.15446179      -1.75455648      -0.13573107      -0.31586404       1.06827071
C       -1.35087662       0.06753188      -0.83361073      -0.13254666       0.30560543      -0.45267475
C       -1.02355927      -0.40776557       0.60160550       0.00733961       0.06879474      -0.20976050
H        0.64036107      -1.79768965      -1.04328517       0.09182774       0.24815489       0.16515217
H        1.88358663      -0.55011457      -1.15797670      -0.19741571       0.07463781       0.14938569
H        0.94679913      -1.03402510       1.35348609      -0.01814569       0.13004238      -0.16005704
H        2.11403549       1.12208436       0.78585589      -0.22289051      -0.10053986       0.12407399
H        0.68983552       1.48934973       1.79403343       0.11444626      -0.16492621      -0.16822807
H        0.64793764       1.73454575       0.03799648       0.02870067      -0.14169255       0.20047501
H       -2.26166246      -0.34845208      -1.28644745       0.14680000      -0.04918318       0.22155917
H       -1.51064095       1.16032725      -0.88048684       0.07454008      -0.23609653       0.10077621
H       -1.37477490      -1.43829651       0.75510972       0.13145883       0.18585082      -0.12592456
H       -1.48668665       0.21105861       1.38008406       0.14616813      -0.04222041      -0.24965780
16