6
Properties=species:S:1:pos:R:3:forces:R:3 energy=-419.2003591110809 pbc="F F F"
O        0.74102000      -1.30444900      -0.08922200       0.17469119       0.78588029       0.14125435
C        0.92789500      -0.13512200       0.12932000      -0.15312184       0.12230822       0.04269000
N       -0.07155400       0.81111500       0.43666400      -2.46315298      -2.67211206      -0.27285861
N       -1.22194200       0.31428500       0.46418300       1.49372720       1.19958325       0.07959808
N       -2.28494800      -0.03922400       0.51137700       1.03603960       0.54987882      -0.00415416
H        1.91214700       0.35503300       0.11815200      -0.08818316       0.01446148       0.01347033
6
Properties=species:S:1:pos:R:3:forces:R:3 energy=-418.93691035560335 pbc="F F F"
O        0.60294600      -1.20588500      -0.16585000       0.51227830       0.63251912       0.11128432
C        0.88150100      -0.07023900       0.12498500      -0.15596515       0.01061994       0.02619976
N       -0.06578900       0.90181300       0.54269600      -2.25055315      -2.77337694      -0.49500624
N       -1.18040000       0.32139500       0.53024200       1.25079059       1.03422892       0.12744638
N       -2.11020200      -0.30034400       0.47961400       0.65923972       0.96547323       0.18882099
H        1.89307800       0.34701200       0.10230500      -0.01579031       0.13053574       0.04125479
6
Properties=species:S:1:pos:R:3:forces:R:3 energy=-418.4669557231593 pbc="F F F"
O        0.40567400      -1.15330300      -0.12493400       0.63801272       0.45108112       0.04906886
C        0.80085000      -0.04253100       0.14215600      -0.22225871      -0.30566900      -0.05836083
N       -0.05076400       1.01435300       0.56474600      -2.00530159      -2.43464815      -0.39843402
N       -1.18303600       0.42527300       0.55901900       1.26621517       0.87293235       0.07755082
N       -1.80672800      -0.50026000       0.38775600       0.39411744       1.11738000       0.24657978
H        1.85035800       0.24728900       0.08544800      -0.07078503       0.29892367       0.08359540
6
Properties=species:S:1:pos:R:3:forces:R:3 energy=-418.8873060416699 pbc="F F F"
O        0.05450600      -1.03755600      -0.02497300      -0.53956453      -0.07396711       0.05084725
C        0.73066700       0.07681100       0.19066300       0.41613802      -0.06030388      -0.07057299
N       -0.02158300       1.05866000       0.56494700      -1.15763178      -0.64767022      -0.01908055
N       -1.27935300       0.51140700       0.58566500       0.82171161      -0.58420402      -0.27816637
N       -1.27287400      -0.69122700       0.25192600       0.76820519       1.28230608       0.25329853
H        1.80081800       0.07552500       0.04477100      -0.30885852       0.08383915       0.06367413
6
Properties=species:S:1:pos:R:3:forces:R:3 energy=-417.91336102906 pbc="F F F"
O       -0.03472600      -1.08689100       0.09172200       0.57580837       1.87662191       0.24073161
C        0.79163500       0.16187500       0.20755600      -1.26659416      -1.33946340      -0.08158043
N        0.09586900       1.17880800       0.44349900      -2.17116253      -2.44802003      -0.16893599
N       -1.41597300       0.51497200       0.49296000       2.99216251      -0.39126667      -0.37655850
N       -1.28083800      -0.67746000       0.28636800       0.60352559       1.80265650       0.23205406
H        1.84545100      -0.08851700       0.05899000      -0.73373978       0.49947169       0.15428925
6
Properties=species:S:1:pos:R:3:forces:R:3 energy=-416.8333013030803 pbc="F F F"
O       -0.15023900      -1.20628400       0.08438800      -1.15604326       1.55393681       0.36781466
C        0.89874300       0.30980900       0.21995300      -0.40126991       0.34202356       0.10373277
N        0.21247900       1.25625000       0.44372600      -0.50649512      -1.73977582      -0.22968920
N       -1.57513100       0.43192600       0.49599900       1.75151885      -1.35882611      -0.40294133
N       -1.25422400      -0.66830100       0.28518400       0.74188552       1.00730082       0.08883211
H        1.86950500      -0.12053800       0.05179800      -0.42959609       0.19534074       0.07225098
6
Properties=species:S:1:pos:R:3:forces:R:3 energy=-417.5731133279998 pbc="F F F"
O       -0.44050100      -1.45663500       0.06385700      -2.29403115       2.07260081       0.58512768
C        1.27321500       0.62413700       0.24126900      -0.85802946       1.25393741       0.29835116
N        0.53638500       1.48439400       0.46341500       1.35630731      -1.45663338      -0.38590120
N       -2.03337800       0.16216000       0.49982200       1.58685462      -1.97442551      -0.49441872
N       -1.27898900      -0.64218300       0.28714500       0.45501976      -0.21851867      -0.08540956
H        1.95363400      -0.17520300       0.03428600      -0.24612108       0.32303933       0.08225064
6
Properties=species:S:1:pos:R:3:forces:R:3 energy=-417.6000398906031 pbc="F F F"
O       -0.38716000      -1.53080400      -0.00828000      -2.69670029       1.61424711       0.67870133
C        1.37057300       0.89983800       0.28791200      -0.49161280       1.44550880       0.35211486
N        0.98436600       1.95492100       0.55093600       0.65612408      -1.88323532      -0.46388524
N       -2.33934100      -0.38813900       0.47844600       2.22816174      -1.30713620      -0.55759201
N       -1.38980100      -0.94142200       0.24199900       0.41884564      -0.30107979      -0.11374287
H        1.71495500      -0.08497600       0.04318800      -0.11481838       0.43169540       0.10440393
6
Properties=species:S:1:pos:R:3:forces:R:3 energy=-417.5768178344158 pbc="F F F"
O       -0.37225600      -1.51259800      -0.04963100      -3.01857842       1.08395096       0.70842656
C        1.43327400       1.08803000       0.31391600       0.19689018       1.47542719       0.31467997
N        1.61858400       2.20290800       0.54591700      -0.30812040      -1.94987470      -0.40815632
N       -2.50798900      -0.77042000       0.44456200       2.40670981      -0.82641766      -0.55369511
N       -1.47015900      -1.12891600       0.20503900       0.53175006      -0.28108525      -0.14862274
H        1.23728600       0.05398300       0.10220300       0.19134877       0.49799945       0.08736763
6
Properties=species:S:1:pos:R:3:forces:R:3 energy=-417.58502462578 pbc="F F F"
O       -0.43082400      -1.39300900      -0.03442000      -3.21102142       0.17631345       0.60993525
C        1.54363000       1.30426700       0.34096200       0.74958410       1.29343006       0.20416419
N        2.12915800       2.28702600       0.49206800      -1.03799068      -1.74113118      -0.26811414
N       -2.70579100      -1.31875100       0.38379900       2.56835705      -0.06951652      -0.46852497
N       -1.60077300      -1.35284700       0.18114400       0.59869378      -0.10378996      -0.13271292
H        0.99453900       0.39177000       0.20194600       0.33237717       0.44469414       0.05525259
6
Properties=species:S:1:pos:R:3:forces:R:3 energy=-415.57210300252586 pbc="F F F"
O        0.22576175      -1.26067471      -0.00771980       1.08352297       5.82791114       1.01152356
C        0.86246114       0.13084332       0.18793903      -3.19614129      -6.59430234      -0.87952243
N        0.09449308       1.08582964       0.45693980      -3.26447631      -0.77831091       0.21061423
N       -1.39894870       0.52490402       0.51582407       2.22868652      -1.09119399      -0.42927395
N       -1.73849223      -0.57425930       0.34938359       4.14383594       2.39876828      -0.04613643
H        1.95527070       0.08700368       0.06689013      -0.99542783       0.23712782       0.13279502
6
Properties=species:S:1:pos:R:3:forces:R:3 energy=-416.2452872795485 pbc="F F F"
O       -0.18587372      -1.27349594       0.02395808      -3.52693777      -0.83163054       0.27503073
C        0.99206474       0.57323696       0.25994654       0.99386480       3.56127779       0.57128870
N        0.66312267       1.66997603       0.50644890      -0.19948907      -3.15325668      -0.58180869
N       -1.93444389       0.02675668       0.49762411       0.00593854      -3.76640510      -0.74343196
N       -1.33502870      -0.92325729       0.23564728       3.15931262       4.64972194       0.51979223
H        1.78098247      -0.10364909       0.04399313      -0.43268912      -0.45970741      -0.04087101
6
Properties=species:S:1:pos:R:3:forces:R:3 energy=-418.46086816675995 pbc="F F F"
O        0.21218161      -1.15157055       0.01133471      -0.61207129       0.73693728       0.22236922
C        0.73893373      -0.03260188       0.17254931       0.03243281      -0.04621130      -0.01180627
N        0.00493755       1.05759939       0.47001752      -1.58711877      -1.47416228      -0.10404795
N       -1.23672907       0.55580588       0.51270506       0.96485482      -0.46877873      -0.20154384
N       -1.52675999      -0.56320397       0.32610346       1.38475480       1.25945188       0.08265485
H        1.81061752       0.12549449       0.08498662      -0.18285236      -0.00723685       0.01237400
6
Properties=species:S:1:pos:R:3:forces:R:3 energy=-416.5211698292892 pbc="F F F"
O        0.04188946      -1.18211372       0.03339285      -1.56647661       4.79987522       1.10027128
C        0.83898061       0.17550536       0.19996266      -2.58833590      -2.89203707      -0.23702810
N        0.13109937       1.16973301       0.46402729      -2.13087985      -2.27804593      -0.19071595
N       -1.48748051       0.50548761       0.51955076       3.50166810      -1.77946603      -0.70327791
N       -1.44524073      -0.67000443       0.29814503       3.97248708       1.85072508      -0.13480457
H        1.92063224      -0.00759281       0.05374115      -1.18846283       0.29894873       0.16555525
6
Properties=species:S:1:pos:R:3:forces:R:3 energy=-417.01575804726156 pbc="F F F"
O       -0.24167005      -1.32137914      -0.00085325      -3.10341302      -0.91091282       0.23194892
C        1.14813655       0.86747347       0.30091847       1.68420321       0.26053261      -0.14489061
N        1.16746405       1.98934803       0.52336218      -0.68109367      -0.43899496      -0.00763136
N       -2.24535903      -0.38667869       0.47525177       0.91876466      -2.55887031      -0.67217955
N       -1.39377996      -1.08408330       0.20881927       1.89584922       3.23477630       0.42469227
H        1.52945613      -0.11176278       0.05942929      -0.71431040       0.41346917       0.16806034
6
Properties=species:S:1:pos:R:3:forces:R:3 energy=-416.9897041495366 pbc="F F F"
O        0.38586258      -1.25800738      -0.02964435       2.74943108       5.91387772       0.84338345
C        0.86052370       0.01418545       0.16560994      -2.42482462      -6.70675932      -1.00729311
N        0.04307827       1.01870013       0.45395486      -4.94888435      -1.91670552       0.17288710
N       -1.28925157       0.47609316       0.49697100       4.04395197       0.85555098      -0.26750788
N       -1.95737684      -0.43148187       0.40045414       1.63955667       1.64965139       0.11945484
H        1.95832253       0.17648037       0.08227047      -1.05923075       0.20438475       0.13907560
6
Properties=species:S:1:pos:R:3:forces:R:3 energy=-417.55804508240556 pbc="F F F"
O        0.24663926      -1.14793641       0.01282972       0.02909032       1.80593552       0.35757355
C        0.78032039       0.00480611       0.17399435      -1.36338607      -1.15070767      -0.05001770
N        0.05996284       1.09238779       0.46120047      -3.10414462      -2.76673723      -0.17989053
N       -1.35019893       0.53155539       0.51170161       3.40991047       0.47219674      -0.27280658
N       -1.64128709      -0.57085987       0.33845146       2.44171245       1.40901671      -0.03358010
H        1.90500873       0.08328681       0.07110632      -1.41318255       0.23029594       0.17872137
6
Properties=species:S:1:pos:R:3:forces:R:3 energy=-417.4495078004943 pbc="F F F"
O       -0.24967158      -1.41121704       0.00673443      -3.04970393       1.52891786       0.67151182
C        1.10662980       0.64301352       0.26076853       0.24814462       1.74611727       0.30772558
N        0.55149344       1.62210603       0.50865161       0.52584628      -1.59259095      -0.36246849
N       -2.00318818       0.00787306       0.50036357       1.22966578      -1.71985694      -0.49007457
N       -1.20750344      -0.74164907       0.25540602       1.35806402      -0.06047341      -0.17846730
H        1.78477743      -0.14869047       0.03584255      -0.31201677       0.09788618       0.05177296
6
Properties=species:S:1:pos:R:3:forces:R:3 energy=-417.56857031804344 pbc="F F F"
O       -0.28940737      -1.45964725      -0.02373887      -2.78877528       1.48900317       0.70083093
C        1.29482250       0.89578035       0.28947371      -0.10670762       1.47107044       0.30760320
N        1.07653412       2.00101997       0.53606349       0.30384626      -1.86962369      -0.40933640
N       -2.30395773      -0.43958447       0.47122207       2.19731228      -0.94103170      -0.50358309
N       -1.31393423      -0.91233843       0.23397418       0.40975212      -0.65380662      -0.19784070
H        1.50091745      -0.13141371       0.05960364      -0.01542775       0.50438841       0.10232607
6
Properties=species:S:1:pos:R:3:forces:R:3 energy=-418.6812626211874 pbc="F F F"
O        0.12594883      -1.09626788      -0.05527508      -0.82691497       0.52247176       0.18236328
C        0.73692983       0.00755702       0.17984745       0.09885943       0.29043379       0.00043614
N       -0.00266528       1.01862345       0.58170915      -1.04964678      -0.71453621      -0.13093508
N       -1.24667130       0.50970214       0.59687655       0.28481600      -0.83416530      -0.25037912
N       -1.38447338      -0.64650862       0.27306002       1.65557107       1.18344507       0.19644086
H        1.79278604       0.19796952       0.04569605      -0.16268476      -0.44764912       0.00207392
6
Properties=species:S:1:pos:R:3:forces:R:3 energy=-418.0877610195319 pbc="F F F"
O        0.39667350      -1.19917108      -0.01869804       1.32237675       1.91077464       0.22234759
C        0.82941163      -0.05042294       0.15723581      -0.85892411      -2.00835947      -0.27213577
N        0.00112645       1.02716539       0.45942422      -4.21507651      -2.80693787      -0.07767375
N       -1.24280589       0.48115523       0.49270801       3.44236440       0.61705104      -0.24701754
N       -1.91243686      -0.43175662       0.39515595       1.35096229       2.00684407       0.22006084
H        1.92905858       0.16845677       0.08372330      -1.04170282       0.28062759       0.15441862
6
Properties=species:S:1:pos:R:3:forces:R:3 energy=-418.2426524388281 pbc="F F F"
O        0.55159906      -1.29472052      -0.06056528       1.90049330       5.37003167       0.85154638
C        0.89127585      -0.04576242       0.15064947      -0.75905680      -5.75441839      -1.04139625
N       -0.00405023       0.91675085       0.44436001      -5.14500641      -2.08224428       0.15466043
N       -1.21518174       0.39844390       0.47684156       0.89183545      -0.61633995      -0.20226946
N       -2.16634580      -0.24522818       0.45880252       3.57390238       3.00999360       0.18131261
H        1.94456078       0.26922132       0.09993933      -0.46216793       0.07297735       0.05614629
6
Properties=species:S:1:pos:R:3:forces:R:3 energy=-417.55720426466297 pbc="F F F"
O       -0.41811263      -1.30952768       0.10506844      -2.49697325       1.72819082       0.49892712
C        1.30853333       0.53459280       0.22757771      -0.82988548       1.17885278       0.27398428
N        0.54651056       1.37412887       0.43989525       1.41154287      -1.18187331      -0.33263644
N       -2.11751779       0.20640318       0.49699582       1.72101653      -1.83085600      -0.44135256
N       -1.30911745      -0.54864881       0.30554601       0.41621117      -0.20632423      -0.07252823
H        2.00884277      -0.24839320       0.03028638      -0.22191184       0.31200994       0.07360582
6
Properties=species:S:1:pos:R:3:forces:R:3 energy=-417.50555634897677 pbc="F F F"
O       -0.00002005      -1.11760469       0.05177576      -0.92513345       3.12195014       0.70525438
C        0.80436866       0.14697914       0.19898259      -1.81228262      -1.67114661      -0.09791439
N        0.11389091       1.16479088       0.46401069      -2.28153981      -2.49181763      -0.20665812
N       -1.45228173       0.50026236       0.51432381       3.38742936      -0.90187336      -0.53628954
N       -1.35711361      -0.68280012       0.28535429       2.87605726       1.68976817      -0.02931675
H        1.89093088      -0.02111205       0.05429604      -1.24453074       0.25311931       0.16492443
6
Properties=species:S:1:pos:R:3:forces:R:3 energy=-416.7262755927411 pbc="F F F"
O        0.23901771      -1.19768894       0.00336665       1.03128458       4.73062529       0.80608832
C        0.81847369       0.05695100       0.17906936      -2.85341478      -4.24030769      -0.46697530
N        0.08432727       1.09657978       0.45979186      -2.89777865      -2.35740982      -0.13057055
N       -1.38680613       0.52451138       0.51439158       3.00617606       0.00476532      -0.31154336
N       -1.69464779      -0.57291524       0.34447147       3.21613274       1.66125136      -0.07720056
H        1.94015425       0.08605740       0.06816247      -1.50239995       0.20107555       0.18020144
6
Properties=species:S:1:pos:R:3:forces:R:3 energy=-417.5539781175455 pbc="F F F"
O       -0.31623391      -1.46712940       0.00667804      -2.46858691       1.87739615       0.66231365
C        1.20512072       0.70114821       0.26169982      -0.66321135       0.84118194       0.22943598
N        0.49127509       1.57034380       0.50493037       1.08696439      -1.11601575      -0.32977642
N       -2.00371664       0.03573893       0.50264570       1.75788828      -1.93295867      -0.58948544
N       -1.20407380      -0.71569789       0.25980565       0.39807339      -0.10425676      -0.06831791
H        1.81268362      -0.15049288       0.03273398      -0.11112780       0.43465309       0.09583014
6
Properties=species:S:1:pos:R:3:forces:R:3 energy=-417.54666234202904 pbc="F F F"
O       -0.32153637      -1.36043082      -0.02003589      -2.38900416      -0.28210459       0.30369230
C        1.37158658       1.08496340       0.31845238       0.79258214       1.71456283       0.26534142
N        1.66575176       2.17728159       0.51463616      -0.47599334      -1.12666181      -0.17893656
N       -2.49914814      -0.83451639       0.43731590       1.42780528      -1.11201312      -0.47740499
N       -1.47148927      -1.20428898       0.19327924       0.81973755       1.28348280       0.16814550
H        1.20290628       0.07365985       0.12260625      -0.17512748      -0.47726611      -0.08083767
6
Properties=species:S:1:pos:R:3:forces:R:3 energy=-415.6401599813803 pbc="F F F"
O        0.05129001      -1.23797508       0.02152748      -2.20353247       5.35775882       1.27742226
C        0.87444315       0.22523281       0.20511148      -2.57899306      -3.74660880      -0.39749728
N        0.14555381       1.17291019       0.46311396      -2.24897649      -1.33697527      -0.00501394
N       -1.51614656       0.50720854       0.52290106       3.44017876      -2.56207886      -0.83752218
N       -1.48305501      -0.66511561       0.30367784       4.33858319       1.97079731      -0.15958179
H        1.92774228      -0.01138227       0.05250318      -0.74725994       0.31710680       0.12219293
6
Properties=species:S:1:pos:R:3:forces:R:3 energy=-417.054852466047 pbc="F F F"
O       -0.21210359      -1.34140636       0.01448849      -3.32502818       0.23311026       0.45466673
C        1.03991939       0.60502688       0.26073891       1.00146613       2.25783751       0.32340962
N        0.61918236       1.65183288       0.50753108      -0.12060070      -1.77667808      -0.32744088
N       -1.97356385       0.01099244       0.49871232       0.33232366      -2.21838828      -0.47893998
N       -1.27274402      -0.83331841       0.24556548       2.49662671       1.77423402       0.03859010
H        1.78082208      -0.12297157       0.04062391      -0.38478762      -0.27011543      -0.01028558
6
Properties=species:S:1:pos:R:3:forces:R:3 energy=-418.24614263587273 pbc="F F F"
O        0.24072404      -1.13796521       0.01636285      -0.58584721       0.32525557       0.14203810
C        0.75481098      -0.02018323       0.17284515      -0.21315069       0.15302755       0.05995852
N        0.00410722       1.07631357       0.46410436      -2.34131421      -2.25074072      -0.16081724
N       -1.27240373       0.54684925       0.50618168       2.31355280       0.11472277      -0.22529062
N       -1.58377660      -0.55977247       0.33337652       1.72197569       1.37855530       0.04758850
H        1.85693896       0.08776264       0.07652860      -0.89521638       0.27917953       0.13652273
6
Properties=species:S:1:pos:R:3:forces:R:3 energy=-417.5832530824849 pbc="F F F"
O       -0.35377447      -1.54314113      -0.03345123      -2.70985199       1.56058977       0.70664866
C        1.34726545       0.92934057       0.29030040      -0.47921574       1.50813435       0.36362424
N        1.05662409       2.01751347       0.54285453       0.54690842      -1.95712886      -0.45876959
N       -2.30121573      -0.40154467       0.47860741       2.31356938      -1.40031630      -0.61872079
N       -1.35641229      -0.95931941       0.22915217       0.31516097      -0.17775401      -0.08151748
H        1.56873225      -0.09374076       0.05999910       0.01342897       0.46647505       0.08873496
6
Properties=species:S:1:pos:R:3:forces:R:3 energy=-418.8250232102426 pbc="F F F"
O        0.07529947      -1.06369568      -0.08303056      -0.72807552       0.33351507       0.21452152
C        0.73377833       0.03636534       0.18019740       0.31928559       0.27198173      -0.05735584
N       -0.00622025       1.00774118       0.61804104      -1.14176221      -0.40907492      -0.01353838
N       -1.25406337       0.48425010       0.63138585       0.31646006      -0.69574214      -0.19453877
N       -1.30718256      -0.68839248       0.25392340       1.35306599       1.02127086       0.11568543
H        1.78714280       0.21248294       0.03841427      -0.11897392      -0.52195060      -0.06477396
6
Properties=species:S:1:pos:R:3:forces:R:3 energy=-418.54803439165244 pbc="F F F"
O        0.17264645      -1.12917833      -0.01954974      -0.79594953       0.65864767       0.21257576
C        0.73439358      -0.01663209       0.17585022       0.28215019       0.14114045      -0.02708218
N        0.00601269       1.03868789       0.52190117      -1.44744338      -1.03685663      -0.09727838
N       -1.24316944       0.54003123       0.55370752       0.65001961      -1.00886108      -0.32592111
N       -1.45819467      -0.60344926       0.30116603       1.55193445       1.51668449       0.22356443
H        1.80096015       0.16231218       0.06727696      -0.24071134      -0.27075490       0.01414148
6
Properties=species:S:1:pos:R:3:forces:R:3 energy=-418.4445878581341 pbc="F F F"
O        0.39827578      -1.18926562      -0.01630134       0.66828399       0.26494384      -0.02376069
C        0.81825704      -0.07123236       0.15508093      -0.18325171      -0.17108594       0.00025914
N       -0.03537573       1.03052978       0.46354257      -2.48890183      -2.58759175      -0.22185616
N       -1.19816949       0.47961686       0.48757532       1.68269683       0.24884725      -0.12743834
N       -1.88193208      -0.42221086       0.39321502       0.96748086       1.87215023       0.23998266
H        1.89984019       0.16742509       0.08643965      -0.64630814       0.37273638       0.13281339
6
Properties=species:S:1:pos:R:3:forces:R:3 energy=-417.4177128013129 pbc="F F F"
O       -0.25333357      -1.38644228      -0.01296734      -3.20561569       0.38394902       0.52271740
C        1.19791623       0.86815910       0.29520161       0.95385041       2.02787168       0.29552806
N        1.13189802       1.99730495       0.52897633      -0.33157591      -1.97561022      -0.35651133
N       -2.27969817      -0.41279097       0.47390094       1.56063652      -1.63517291      -0.56231874
N       -1.35209239      -0.99372532       0.22232570       1.38357069       1.04863557       0.02763189
H        1.51996114      -0.11909217       0.05940529      -0.36086601       0.15032686       0.07295273
6
Properties=species:S:1:pos:R:3:forces:R:3 energy=-418.7287143600627 pbc="F F F"
O        0.55657254      -1.26215274      -0.05448598       1.17196753       2.54973762       0.37112198
C        0.88500429      -0.08296006       0.14420102      -0.44943286      -2.25026252      -0.37898184
N       -0.02693199       0.92376663       0.44794882      -3.90647725      -2.67232400      -0.10001650
N       -1.20675115       0.39291176       0.47480920       1.97121718       0.51104765      -0.10605892
N       -2.14378454      -0.23848285       0.45756456       1.77357187       1.79797883       0.14786554
H        1.93772110       0.26547744       0.09992482      -0.56084648       0.06382243       0.06606973
6
Properties=species:S:1:pos:R:3:forces:R:3 energy=-417.5915816765586 pbc="F F F"
O       -0.42672976      -1.37707644       0.08082992      -2.14993894       1.71606434       0.49049989
C        1.27422377       0.56742931       0.23546084      -0.71876674       1.31709015       0.29748124
N        0.54009910       1.42964895       0.45524654       1.27541474      -1.34457633      -0.35685749
N       -2.06698966       0.18229404       0.49789838       1.10425421      -1.33268789      -0.32898743
N       -1.28749587      -0.59057062       0.29422461       0.73029677      -0.58985637      -0.16510253
H        1.97825092      -0.20939817       0.03370084      -0.24126004       0.23396610       0.06296632
6
Properties=species:S:1:pos:R:3:forces:R:3 energy=-417.6645022507829 pbc="F F F"
O        0.39259574      -1.21830852      -0.02228515       1.98855938       3.73218955       0.50235393
C        0.83970183      -0.02681062       0.16028006      -1.52633042      -4.04797954      -0.58979456
N        0.02666819       1.02542408       0.45662172      -4.74782934      -2.57310252       0.02415536
N       -1.27100702       0.47918424       0.49544379       4.02353351       0.85760693      -0.26442094
N       -1.93327132      -0.43516105       0.39698785       1.46820676       1.81176292       0.16926690
H        1.94640664       0.17136206       0.08252635      -1.20613989       0.21952266       0.15843932
6
Properties=species:S:1:pos:R:3:forces:R:3 energy=-417.57186200949945 pbc="F F F"
O       -0.32576174      -1.42567495      -0.03437846      -3.27491545       0.86701628       0.70666684
C        1.41961670       1.08779819       0.31295457       0.20072479       1.25292748       0.24190506
N        1.63754187       2.19931865       0.52326229      -0.31802873      -1.72300846      -0.32741466
N       -2.51849601      -0.85554334       0.43460540       2.15142362      -0.51287356      -0.44806722
N       -1.45401426      -1.12468318       0.20886656       0.99509240      -0.43037949      -0.25794585
H        1.18909972       0.05596524       0.12052807       0.24570336       0.54631775       0.08485583
6
Properties=species:S:1:pos:R:3:forces:R:3 energy=-417.5650731394635 pbc="F F F"
O       -0.38318110      -1.50822842       0.01033939      -2.40854896       2.03938539       0.67626964
C        1.22718507       0.69558179       0.25910154      -0.88628185       1.27743163       0.33303059
N        0.49720422       1.55659198       0.50237857       1.36817697      -1.53322941      -0.43813318
N       -2.00448022       0.06517372       0.50422653       1.50695988      -1.89079655      -0.54230152
N       -1.24212613      -0.72235132       0.26271882       0.66076321      -0.24750553      -0.12581085
H        1.89449140      -0.11034746       0.03137731      -0.24106925       0.35471447       0.09694531
6
Properties=species:S:1:pos:R:3:forces:R:3 energy=-417.5150645073943 pbc="F F F"
O       -0.27832852      -1.44144948       0.00531881      -2.59185397       1.88578501       0.68277980
C        1.15363858       0.66842665       0.26057442      -0.76355083       2.03939531       0.47305020
N        0.51054277       1.60021940       0.50858411       1.36417723      -2.08188998      -0.54658853
N       -2.00962810       0.01029513       0.50058633       1.67960267      -1.63483795      -0.52696575
N       -1.17998933      -0.70464577       0.25918268       0.49589846      -0.48135775      -0.15353958
H        1.78703175      -0.16050969       0.03364359      -0.18427355       0.27290536       0.07126386
6
Properties=species:S:1:pos:R:3:forces:R:3 energy=-417.58040779148916 pbc="F F F"
O       -0.42406523      -1.56054486       0.00062673      -2.77810005       1.78252379       0.70055196
C        1.39205103       0.89483242       0.28744663      -0.91540170       2.36925987       0.59311424
N        0.95121965       1.93592823       0.55574248       1.08240491      -2.70155839      -0.68585697
N       -2.35480171      -0.37524692       0.47692098       2.11556069      -1.28347282      -0.51925133
N       -1.41551531      -0.94638490       0.24626682       0.63523098      -0.47589046      -0.17325404
H        1.80057030      -0.06000822       0.03876698      -0.13969484       0.30913801       0.08469613
6
Properties=species:S:1:pos:R:3:forces:R:3 energy=-416.9231535281756 pbc="F F F"