13
Properties=species:S:1:pos:R:3:forces:R:3 energy=-506.4822889888117 pbc="F F F"
C        1.76428500       0.62002500       0.44730700       0.15140169       0.03711305       0.06803176
O        0.36408300       0.50556300       0.42753400       0.30971975      -0.00550988      -0.00117589
C       -0.08398400      -0.62021700      -0.29589900       0.24989671      -0.05525538      -0.01607699
C       -1.59297600      -0.50424500      -0.37943000      -0.40176078      -0.11443789      -0.13578693
O       -1.96705000       0.69269900      -1.02020000       0.07489734      -0.17668472       0.24096377
H        2.00627000       1.51474400       1.02424200      -0.07841847      -0.07479484      -0.05488997
H        2.23659100      -0.25149700       0.92769500      -0.10996131       0.08465699      -0.07307015
H        2.17646900       0.72398300      -0.56887800      -0.09253117      -0.02832896       0.10736781
H        0.34649100      -0.61420000      -1.31129000       0.00415876       0.00804244       0.07331089
H        0.21424800      -1.55587500       0.20700300      -0.02462364       0.09187549      -0.04049835
H       -1.99777000      -1.33116800      -0.97036100      -0.01991296       0.07623963      -0.02701832
H       -2.01741200      -0.56864300       0.63524700       0.01482436       0.14128437      -0.06609655
H       -1.45126600       1.38805100      -0.58796500      -0.07769029       0.01579968      -0.07506107
13
Properties=species:S:1:pos:R:3:forces:R:3 energy=-506.398778807252 pbc="F F F"
C        1.58016900       0.77885000       0.43434400       0.12052755       0.08175429       0.00365713
O        0.31793000       0.24401500       0.75317000       0.29458082       0.02410836       0.00625708
C       -0.10197200      -0.80098900      -0.10986800       0.29117078      -0.08072276      -0.00296192
C       -1.52880100      -0.48506100      -0.51936500      -0.43144456      -0.09816813      -0.23562022
O       -1.57658200       0.76740400      -1.16546900      -0.05281180      -0.18623521       0.28524682
H        1.82216100       1.51553400       1.20439900      -0.09122707      -0.09741562      -0.06503510
H        2.36301100       0.00777200       0.42215400      -0.10130612       0.04238005       0.04256095
H        1.56380700       1.27685300      -0.54685900       0.02352516      -0.05066802       0.07953376
H        0.52900600      -0.83780400      -1.00923300      -0.03577223       0.02264810       0.10283466
H       -0.03201100      -1.76902800       0.40806900      -0.04498546       0.08923457      -0.01989014
H       -1.90248300      -1.23292700      -1.22557200       0.03416223       0.09241257      -0.00975006
H       -2.17470700      -0.49899800       0.37237100       0.04022033       0.10276191      -0.06340592
H       -1.15194200       1.37914600      -0.54653700      -0.04663961       0.05790990      -0.12342706
13
Properties=species:S:1:pos:R:3:forces:R:3 energy=-506.3473776143662 pbc="F F F"
C        1.40701100       0.84216400       0.47262000       0.12309012       0.13295141      -0.04124731
O        0.54220600      -0.15021000       0.97298300       0.13679928      -0.01030193       0.00156451
C       -0.01979300      -0.98040700      -0.02175600       0.34778913      -0.22872058       0.02650450
C       -1.32893200      -0.42722000      -0.56250600      -0.45935367       0.13408104      -0.16634289
O       -1.15921200       0.70555400      -1.40033300      -0.17663924      -0.12912271       0.20415262
H        1.70844200       1.46093300       1.32200600      -0.06369186      -0.12418582      -0.07829690
H        2.30408500       0.39946300       0.01348000      -0.08859805      -0.01531603       0.07968261
H        0.92198200       1.47413500      -0.28088200       0.05509833      -0.02165207       0.07705049
H        0.68734300      -1.14174600      -0.85027300      -0.03338017       0.08664961       0.09467734
H       -0.21358800      -1.95156800       0.45155100      -0.01357806       0.12890998       0.02787413
H       -1.82320800      -1.19679100      -1.16707900       0.08130224       0.06222965      -0.03606547
H       -1.98367300      -0.19184300       0.28801900       0.03097436       0.01182295      -0.09530489
H       -1.19254000       1.49375700      -0.84692400       0.06018758      -0.02734551      -0.09424873
13
Properties=species:S:1:pos:R:3:forces:R:3 energy=-506.07702977776756 pbc="F F F"
C        1.25199800       0.82409500       0.47642700       0.30635692       0.12502352       0.01944164
O        0.78989100      -0.41945800       0.97316000      -0.13623967       0.15002064      -0.26691232
C        0.07375700      -1.09540700      -0.02988300       0.03799069      -0.28205465      -0.11025237
C       -1.13110900      -0.26666300      -0.50980900      -0.22195256       0.15217537      -0.06208431
O       -0.83560100       0.77992000      -1.45431600      -0.30334045      -0.32179571       0.29233600
H        1.44138600       1.47534800       1.32857900       0.12239784      -0.08811908      -0.02263191
H        2.15929800       0.68223400      -0.12433900       0.13303118       0.01438410       0.18828737
H        0.51640000       1.27959600      -0.19006100       0.34795673       0.13362473       0.38794137
H        0.73542000      -1.39915400      -0.85958400      -0.10701258       0.29157989      -0.01311215
H       -0.30222000      -2.02048700       0.43364300      -0.00026297       0.25325243      -0.04274776
H       -1.85494400      -0.92789500      -0.99079500      -0.09987964      -0.13961767       0.04089016
H       -1.56182900       0.14436100       0.41504300      -0.11967304       0.03475774      -0.25172704
H       -1.33108100       1.57604800      -1.21225600       0.04062755      -0.32323131      -0.15942869
13
Properties=species:S:1:pos:R:3:forces:R:3 energy=-504.23806093359826 pbc="F F F"
C        1.10798200       0.77232600       0.41854700       0.26777854       0.86096092      -0.58621333
O        0.83829100      -0.50273600       1.03984600      -0.41111201       0.65256129      -0.81103710
C        0.14472600      -1.19756100       0.05718200      -0.47631579       0.29035980      -0.48973535
C       -1.01556100      -0.25327000      -0.42543600      -0.44946735       1.09691288      -1.35556209
O       -0.76816600       1.01880900      -1.44267100      -1.56836848      -2.00709683       1.02119106
H        1.28509100       1.46011500       1.24497400       0.03273607       0.12815499      -0.25598669
H        2.00398300       0.64491000      -0.19642700       0.39605836       0.16241405       0.21711694
H        0.31150200       1.17265700      -0.41856800       2.84759834      -0.65581015       3.16456643
H        0.80736300      -1.50647000      -0.76825500      -0.05000875       0.26289878      -0.10147100
H       -0.25211600      -2.14240100       0.49779400      -0.19547105       0.73206954      -0.22707289
H       -1.70099600      -0.78077000      -1.05592600      -0.56684362      -0.50437388       0.00012387
H       -1.45282000       0.13335800       0.50610200      -0.06632595       0.08522273      -0.57966938
H       -1.34056900       1.78795300      -1.21913100       0.23974168      -1.10427412       0.00374952
13
Properties=species:S:1:pos:R:3:forces:R:3 energy=-501.6476566300354 pbc="F F F"
C        1.08173700       0.68494300       0.47719600       0.46145890      -0.16036561       0.34436719
O        0.87095000      -0.57469500       1.10013900       0.01199923       0.37181322      -0.15692828
C        0.17945100      -1.27134300       0.12351800      -0.35116204      -0.56321969      -0.19110699
C       -0.94192800      -0.35823000      -0.28692800      -0.14314481      -0.47551273       0.54702050
O       -0.67183400       1.24883000      -1.50649200      -0.20423159       1.07145330       0.20253087
H        1.26514400       1.43546600       1.25300700      -0.23232975      -0.06454317      -0.18196929
H        1.94569800       0.62928100      -0.20953500      -0.38976273       0.03654798      -0.05324616
H        0.04435300       1.25147800      -0.74301200       0.28508769       0.07021654      -0.30373782
H        0.81282000      -1.52543700      -0.74598700       0.07019813       0.09836139       0.09253139
H       -0.22295900      -2.21766100       0.52735400       0.05595166      -0.02798354       0.04145920
H       -1.62047400      -0.72366700      -1.05552200       0.18212797      -0.03181825       0.21638778
H       -1.42934100       0.12543800       0.55414800       0.05478670      -0.09091367      -0.18652552
H       -1.34529700       1.90275600      -1.25164100       0.19902064      -0.23403575      -0.37078286
13
Properties=species:S:1:pos:R:3:forces:R:3 energy=-503.1143038548977 pbc="F F F"
C        0.92822100       0.53023100       0.46159300      -0.88006804      -0.33161139      -0.26146407
O        0.97396300      -0.67725400       1.15863800       0.47436384      -0.43044664       0.07049757
C        0.20698600      -1.38806600       0.20535200       0.21154971      -0.93646839       0.30479391
C       -0.73929700      -0.29537900      -0.12897200       0.77578390       0.75912136       0.84316263
O       -0.61982700       1.53939700      -1.68442000      -0.11627346       1.12515133      -0.19764710
H        1.06463200       1.38472800       1.16014400      -0.83969150      -0.33913469      -0.44607387
H        1.76017700       0.59731400      -0.27894100      -0.82068859      -0.21646885      -0.13032237
H       -0.05397400       1.31515200      -0.92579500      -0.02583271       0.30502285      -0.75250279
H        0.81056100      -1.59330600      -0.69983200       0.02723319      -0.21252352       0.27080752
H       -0.21451800      -2.31086000       0.59418700       0.00486912      -0.29022171       0.18329549
H       -1.37177500      -0.50299000      -1.02258900       1.00107148       0.72474296       0.25908047
H       -1.39689700       0.05577100       0.66409400       0.23886313      -0.26223278       0.21734947
H       -1.38234000       1.94785300      -1.26258600      -0.05118007       0.10506945      -0.36097687
13
Properties=species:S:1:pos:R:3:forces:R:3 energy=-505.11408259312503 pbc="F F F"
C        0.78939300       0.42229600       0.44420500      -0.52071069      -0.01365033      -0.11068360
O        1.10269500      -0.77031900       1.16177800       0.08140935      -0.17852913      -0.39514072
C        0.24258400      -1.49828800       0.27858800       0.10844673      -0.55789449       0.23258370
C       -0.58631400      -0.26651000       0.00001000       0.50585855       0.47655919       0.44847892
O       -0.64117500       1.80140700      -1.80978500      -0.20385354       0.32744282       0.31687146
H        0.82943700       1.30918800       1.09703800      -0.44222043      -0.26949759      -0.15303923
H        1.54394900       0.56908100      -0.35661700      -0.39300303      -0.14316246       0.01971733
H       -0.04597900       1.45512200      -1.13638800       0.14107639       0.31405334      -0.52172373
H        0.79514200      -1.75534100      -0.64132600      -0.02644122      -0.23244890       0.20409263
H       -0.20828400      -2.38707000       0.71727700       0.01984422       0.02872463       0.12454769
H       -1.07732600      -0.24913700      -0.98070000       0.55884083       0.27483230       0.18426236
H       -1.34301400      -0.05174600       0.76108500       0.20140489      -0.19673741       0.01784725
H       -1.42644500       2.01951000      -1.29463400      -0.03065204       0.17030804      -0.36781407
13
Properties=species:S:1:pos:R:3:forces:R:3 energy=-505.6187605162568 pbc="F F F"
C        0.76357300       0.33458400       0.52095100       0.03364884       0.17498527       0.04716660
O        1.26178400      -0.89270900       1.06217900      -0.25004409       0.02474849      -0.37090278
C        0.26232000      -1.62818300       0.33740100       0.00015256      -0.20751683       0.07936098
C       -0.53877700      -0.35077100       0.07526400       0.10120843       0.08531753       0.15070319
O       -0.76278900       1.98703300      -1.97783100      -0.00494000       0.02339845       0.51987580
H        0.70551900       1.13104400       1.27150400      -0.03351786      -0.11773860      -0.02820444
H        1.39824900       0.67253800      -0.31610000      -0.06400423      -0.08289181       0.12352913
H        0.00490200       1.81726300      -1.41775100      -0.06158649       0.12664022      -0.33428215
H        0.68259600      -2.06091500      -0.58074600      -0.00861198       0.00383447       0.10755330
H       -0.19689500      -2.41779200       0.93942300       0.03524659       0.10962905      -0.01886298
H       -0.89587000      -0.16859600      -0.93889700       0.11431456      -0.13997495       0.14120199
H       -1.34873000      -0.20283200       0.79387600       0.10953155      -0.05140605      -0.12069071
H       -1.47659800       2.15582200      -1.35054400       0.02860213       0.05097475      -0.29644793
13
Properties=species:S:1:pos:R:3:forces:R:3 energy=-505.6826300655035 pbc="F F F"
C        0.69646300       0.27671000       0.20808600       0.11382591       0.17855627       0.02039997
O        1.35315300      -0.82356300       0.84984800      -0.42952577       0.01287582      -0.24491714
C        0.28655100      -1.71802700       0.49119000       0.00278824      -0.10500676       0.02511986
C       -0.48888300      -0.59655400      -0.21433400       0.06289710      -0.03138486       0.04913081
O       -1.11871200       2.17441100      -1.30201400       0.42216520       0.27007425       0.16731563
H        0.46729800       1.08243400       0.91841800       0.03402364      -0.12916085      -0.00587277
H        1.30206000       0.68897600      -0.61024400      -0.01381076      -0.11140044       0.07838465
H       -0.25368100       2.24912000      -1.72250200      -0.27133814      -0.07565220      -0.08260557
H        0.63812500      -2.53122500      -0.15500800       0.00326198       0.09506736       0.03798441
H       -0.19461200      -2.15064000       1.37632000       0.03851503       0.07780266      -0.05451726
H       -0.62316500      -0.71143400      -1.29037100       0.08676819      -0.02041378       0.15901787
H       -1.44753300      -0.32466100       0.22906200       0.17528310      -0.06747084       0.00262324
H       -0.99629400       2.57975500      -0.43540800      -0.22485372      -0.09388662      -0.15206370
13
Properties=species:S:1:pos:R:3:forces:R:3 energy=-502.9160009337208 pbc="F F F"
C        0.92108987       0.47235541       0.36621813      -1.90612119      -0.29990483      -1.26474271
O        1.10009651      -0.72684229       0.99974656       0.98173618      -0.52680064       1.40686997
C        0.20685901      -1.47501692       0.28538101       0.29938130      -3.23591080       0.57555853
C       -0.75527255      -0.51499743      -0.23819861       1.27892746       2.67678959       0.54573345
O       -0.96783313       1.67208386      -1.46193123       2.31539094       2.17278925       2.05787021
H        0.97593200       1.22923218       1.14419475      -0.55749045       0.58293989      -0.42914074
H        1.64249393       0.61583944      -0.44016737      -0.17785412       0.13276977      -0.28999108
H        0.03167711       1.72412470      -1.20213452      -2.14007576      -0.58051266      -1.29395448
H        0.72824422      -2.01717843      -0.51235445       0.04514473      -0.05033031      -0.36399914
H       -0.21137526      -2.23896123       0.94601723      -0.26057391      -0.49513045       0.18247437
H       -1.21148894      -0.78524313      -1.18537739       0.51727458       0.67274926      -0.19674195
H       -1.50389060      -0.11174573       0.42587506       0.05714270      -0.12216024       0.31439632
H       -1.24217283       2.30783119      -0.74085034      -0.45288245      -0.92728781      -1.24433277
13
Properties=species:S:1:pos:R:3:forces:R:3 energy=-505.5580189858642 pbc="F F F"
C        0.73597279       0.32388644       0.26051248       0.27151120       0.19977194       0.16580789
O        1.24893155      -0.80369109       0.98304803      -0.31609177      -0.04660469      -0.38910324
C        0.25097153      -1.65886857       0.40467308      -0.00025164      -0.07688349       0.04349104
C       -0.52552305      -0.46065889      -0.15104836      -0.09386510      -0.18339727       0.13687282
O       -1.02020870       1.96776736      -1.42905024       0.15152052       0.31745791       0.12943978
H        0.63998412       1.18587577       0.93803955      -0.27981758      -0.15308434      -0.10959515
H        1.43601899       0.62521950      -0.54035850      -0.23635977      -0.28154849      -0.00536883
H       -0.06259938       1.87968196      -1.46025904      -0.18787569       0.03723701      -0.17455893
H        0.68521488      -2.26268041      -0.40539948      -0.03932108      -0.08551416       0.22968036
H       -0.24166002      -2.29506601       1.14656651       0.10448571       0.05626526      -0.07713415
H       -0.83891791      -0.56370563      -1.19323563       0.43169926       0.31946546       0.10789144
H       -1.42245232      -0.18663769       0.41280247       0.30445720      -0.05777166       0.09903414
H       -1.20475338       2.41570747      -0.59742165      -0.11009125      -0.04539348      -0.15645718
13
Properties=species:S:1:pos:R:3:forces:R:3 energy=-504.66795789574763 pbc="F F F"
C        0.80577034       0.38922970       0.33942798      -0.62422080      -0.11362597      -0.21250363
O        1.10338174      -0.77372842       1.09469342       0.14427903      -0.32018950      -0.32465344
C        0.21747506      -1.56108805       0.30740713       0.08194614      -0.40721450       0.20476968
C       -0.61350400      -0.37347296      -0.13451040       0.61988903       0.38818174       0.62109044
O       -0.87086611       1.77908106      -1.54092810      -0.02483571       0.63474958      -0.02679979
H        0.91272396       1.25853004       1.03743201      -1.03658483      -0.36180879      -0.56227294
H        1.60445455       0.57295534      -0.42417687      -0.71265794      -0.46555393      -0.07279098
H       -0.01474282       1.57978024      -1.15506406      -0.04002724       0.09055909      -0.37883981
H        0.74208069      -1.94042165      -0.58757860       0.00143934      -0.25877273       0.32388309
H       -0.24260190      -2.36305360       0.87726083      -0.03622464      -0.15486677       0.03447489
H       -1.12968553      -0.57807187      -1.10637584       1.22632824       1.00563550       0.31024908
H       -1.44425209      -0.09089419       0.52869308       0.58772362      -0.09094180       0.22949563
H       -1.33473490       2.24554721      -0.84164126      -0.18705424       0.05384808      -0.14610223
13
Properties=species:S:1:pos:R:3:forces:R:3 energy=-502.5661696349789 pbc="F F F"
C        1.26600366       0.70594660       0.54559665       0.19787487       1.37505155      -4.39921610
O        0.68605500      -0.44688782       1.03236296       0.00555782      -0.72682395       1.01454111
C        0.09461888      -1.14510181      -0.00407350      -0.27118656      -0.24840440       0.07386175
C       -1.17916832      -0.44859136      -0.29989729      -0.82856348       2.56916484      -2.81018495
O       -0.93488996       1.09337589      -1.42655677      -1.11939735      -2.92574086       2.10224811
H        1.60225454       1.40538287       1.30927375      -0.60730361      -0.13092015      -0.22089108
H        2.12531261       0.35008360      -0.06085863       0.36738883       0.50663988       0.32826599
H        0.48235561       1.17399768      -0.69526245       2.29546788      -0.54519461       3.89671121
H        0.68882958      -1.30045783      -0.92634789       0.21383260       0.30112252       0.39394659
H       -0.10887402      -2.14706812       0.41582720      -0.30822079       0.13473383      -0.20680010
H       -1.83146433      -0.94998577      -1.01312759      -0.03530642       0.08412008       0.29366118
H       -1.64143225      -0.04841771       0.60143826       0.03629687       0.16400290      -0.45229804
H       -1.40152242       1.84249755      -1.02637275       0.05355933      -0.55775161      -0.01384566
13
Properties=species:S:1:pos:R:3:forces:R:3 energy=-504.5865111126453 pbc="F F F"
C        1.51601239       0.71822199       0.51464449       1.47360948      -0.23777263      -3.88384766
O        0.40616586      -0.00134919       0.80446008      -0.16980582       1.03946413       1.87255890
C        0.00719580      -0.90030022      -0.16173109      -0.33368617      -0.95454499       0.20342165
C       -1.39318529      -0.47447721      -0.34288132      -1.80176229       2.41031026      -2.97838380
O       -1.46271917       0.86066730      -1.27428643       0.13289469      -2.87067476       1.94404203
H        1.81523421       1.51312024       1.21109332      -0.73250222      -0.23211139      -0.54063789
H        2.30269425      -0.05336728       0.45957659       0.79295356       0.60996068      -0.08068371
H        1.34671804       1.03569421      -0.77138799       0.84091477       0.14637022       3.27097163
H        0.51445440      -0.99101239      -1.13393080       0.36328369       0.62314895       0.42648015
H        0.05820849      -1.88700062       0.32554430      -0.19861494      -0.24985466      -0.27725674
H       -1.93019917      -1.15546420      -1.00100124      -0.35813290       0.01681718       0.22414006
H       -1.85317265      -0.30340580       0.63512886      -0.11354012       0.19200433      -0.53479286
H       -1.40562838       1.68138278      -0.77241717       0.10438826      -0.49311732       0.35398825
13
Properties=species:S:1:pos:R:3:forces:R:3 energy=-502.1460775935843 pbc="F F F"
C        1.03281813       0.55091635       0.45087519      -0.05031216      -0.21675740       0.00936279
O        0.95670319      -0.67385726       1.07706944       0.12142837      -0.07435379       0.51958404
C        0.17519247      -1.39736370       0.19163204       0.17869760      -1.15045061       0.00365949
C       -0.88543604      -0.45725268      -0.24550531       0.18879568       0.54769283       0.32754226
O       -0.79222034       1.48858451      -1.49211187       0.36699712       1.27184626       0.62344090
H        1.22793180       1.29794589       1.23493568      -0.41533629       0.13423283      -0.53889241
H        1.79869749       0.57741400      -0.34586818      -0.52676721       0.00460445      -0.02812295
H        0.02087292       1.45630699      -0.92806009      -0.37393245      -0.17050734      -0.81719679
H        0.75937549      -1.73462023      -0.67620773       0.13981728       0.00535169      -0.09522020
H       -0.20707277      -2.27805574       0.70395276      -0.20238566      -0.54609380       0.12694597
H       -1.48804251      -0.80107145      -1.10302188       0.59182371       0.51602570       0.27294906
H       -1.51231400      -0.01470617       0.51829063       0.20626061      -0.11982335       0.11975852
H       -1.32432824       2.11534700      -0.97800453      -0.22508660      -0.20176747      -0.52381069
13
Properties=species:S:1:pos:R:3:forces:R:3 energy=-505.6773377636698 pbc="F F F"
C        0.75223495       0.28389712       0.40854609       0.05615929       0.17563544       0.04808910
O        1.31364503      -0.91416443       0.95568668      -0.32870292       0.03560927      -0.33507177
C        0.26908860      -1.70490037       0.36444111      -0.01723297      -0.12906668       0.03472174
C       -0.52833009      -0.44988449      -0.01369061       0.07403095       0.04413489       0.15129183
O       -0.92846661       2.07851804      -1.76958168       0.16166494       0.13306570       0.43296938
H        0.65738868       1.07633911       1.16182586       0.00354607      -0.11511396      -0.04754683
H        1.35760478       0.65632370      -0.43344719      -0.04528997      -0.10203644       0.12672644
H        0.00557680       2.09926434      -1.53006346      -0.16919668       0.01082699      -0.22170006
H        0.63718915      -2.27382470      -0.49994112       0.00145016       0.06063617       0.10119466
H       -0.18196300      -2.39433344       1.08613748       0.02783391       0.10534557      -0.05395799
H       -0.84122574      -0.33442251      -1.05179632       0.11039817      -0.10232012       0.13887901
H       -1.37580965      -0.25261694       0.64848911       0.15606752      -0.07226115      -0.10166600
H       -1.39364908       2.31281360      -0.95720213      -0.03072848      -0.04445568      -0.27392950
13
Properties=species:S:1:pos:R:3:forces:R:3 energy=-504.5929042001612 pbc="F F F"
C        0.80866008       0.37592999       0.28770112      -2.65385865      -0.64865052      -1.53618146
O        1.23049625      -0.77516780       0.92870497       0.97198018      -0.59844200       0.75358610
C        0.24650408      -1.58983619       0.38347106       0.06617265      -2.27678859       0.75396889
C       -0.62117317      -0.55442264      -0.22276980       2.04398727       2.77815282       0.65164662
O       -1.07803952       1.90566955      -1.38433836       2.39662218       1.53743968       1.24618370
H        0.72619858       1.16195455       1.03714608      -0.53450729       0.30701052      -0.32313351
H        1.47844199       0.65438946      -0.52678076      -0.08180157       0.08308822      -0.21217603
H       -0.07479024       1.98204828      -1.49271687      -1.85474704      -0.51139855      -0.45577858
H        0.68664597      -2.27706847      -0.34248822       0.02287536      -0.14877991      -0.27997073
H       -0.20802616      -2.19801788       1.16536355      -0.21260087      -0.29115050       0.22108679
H       -0.92373885      -0.74882262      -1.24626266       0.49761766       0.61112130      -0.09902842
H       -1.48379592      -0.21427995       0.33266282       0.03658397      -0.09935104       0.25990277
H       -1.11862238       2.45045566      -0.55440825      -0.69832386      -0.74225141      -0.98010615
13
Properties=species:S:1:pos:R:3:forces:R:3 energy=-503.6700473662058 pbc="F F F"
C        1.39206522       0.72981573       0.53581122       0.90146015       0.08138424      -4.46651920
O        0.52863294      -0.24425596       0.94269070       0.37456508       0.29243086       1.85338823
C        0.04953456      -1.02188369      -0.09003049      -0.44362335      -0.84306202       0.12255203
C       -1.29294987      -0.46019726      -0.32366145      -1.36893458       2.91712883      -3.30166432
O       -1.19538413       0.95805763      -1.35409679      -0.14016660      -3.02412873       2.37442583
H        1.71886351       1.47131390       1.27019835      -0.83536706      -0.14445811      -0.41955554
H        2.26226764       0.13489806       0.18791481       0.54379246       0.81473055       0.03020665
H        0.90877950       1.12656606      -0.75680656       1.26431421      -0.05286697       3.62707106
H        0.60006583      -1.14632864      -1.03854708       0.35481380       0.50568894       0.52302191
H       -0.02217849      -2.02109100       0.37100518      -0.35584362      -0.10977846      -0.30551360
H       -1.88844171      -1.06015466      -1.00974096      -0.25420677       0.06984637       0.28425991
H       -1.75852040      -0.17899704       0.62240024      -0.07958623       0.17161538      -0.53761765
H       -1.41581585       1.77486274      -0.88362844       0.03878252      -0.67853087       0.21594469
13
Properties=species:S:1:pos:R:3:forces:R:3 energy=-506.2809378946387 pbc="F F F"
C        1.34971543       0.81657200       0.48966430       0.16646345       0.06554812      -0.04368732
O        0.72230686      -0.35856074       0.96073028      -0.00146944       0.06395680      -0.06985757
C        0.02492775      -1.07220215      -0.03261199       0.26505347      -0.31588692      -0.01542082
C       -1.22201049      -0.35144575      -0.53109626      -0.30237482       0.24514472      -0.03868067
O       -0.92004993       0.70293096      -1.44330063      -0.21661573      -0.13280661       0.19884281
H        1.69181060       1.36592999       1.36913184      -0.02136397      -0.10941231      -0.06128508
H        2.21395863       0.58482886      -0.15393090      -0.12506753      -0.05728154       0.11846905
H        0.66250715       1.44229852      -0.08786091       0.12473885      -0.01671781       0.13419613
H        0.68148705      -1.33017365      -0.88085470      -0.04100701       0.18402505       0.06975086
H       -0.29337804      -2.00886220       0.44427651       0.07502738       0.14428726       0.00672560
H       -1.87385115      -1.07681180      -1.03742676       0.04528684       0.03950894      -0.02995370
H       -1.75193778       0.02896457       0.35178388       0.00285110       0.00953926      -0.11418504
H       -1.36085714       1.50709048      -1.14579401       0.02847739      -0.11990499      -0.15491424
13
Properties=species:S:1:pos:R:3:forces:R:3 energy=-505.7431640496014 pbc="F F F"
C        1.63849598       0.68000479       0.49032470       1.52595780      -0.43727042      -2.79382041
O        0.35038801       0.25936057       0.61424673      -0.62749432       1.21217513       1.10042512
C       -0.03618579      -0.76434011      -0.22707691       0.03402139      -0.65255189       0.05790220
C       -1.48909021      -0.48898734      -0.36061163      -1.65023538       1.54166934      -1.89685593
O       -1.72523314       0.77973854      -1.16092591       0.14550290      -2.23208846       1.22029862
H        1.90741477       1.52636969       1.12564306      -0.41888522      -0.12076570      -0.34343880
H        2.27462823      -0.18451510       0.71863284       0.58751520       0.20126506       0.03409993
H        1.77942651       0.88394441      -0.70839886       0.31224813       0.15151472       2.40484121
H        0.43098541      -0.80936616      -1.22311640       0.25293996       0.43183069       0.22150313